 Entering Gaussian System, Link 0=g16
 Input=2H2_H2_dummy_input_1.com
 Output=2H2_H2_dummy_input_1.log
 Initial command:
 /export/local/g16/l1.exe "/var/tmp/Gau-28221.inp" -scrdir="/var/tmp/"
 Entering Link 1 = /export/local/g16/l1.exe PID=     28222.
  
 Copyright (c) 1988,1990,1992,1993,1995,1998,2003,2009,2016,
            Gaussian, Inc.  All Rights Reserved.
  
 This is part of the Gaussian(R) 16 program.  It is based on
 the Gaussian(R) 09 system (copyright 2009, Gaussian, Inc.),
 the Gaussian(R) 03 system (copyright 2003, Gaussian, Inc.),
 the Gaussian(R) 98 system (copyright 1998, Gaussian, Inc.),
 the Gaussian(R) 94 system (copyright 1995, Gaussian, Inc.),
 the Gaussian 92(TM) system (copyright 1992, Gaussian, Inc.),
 the Gaussian 90(TM) system (copyright 1990, Gaussian, Inc.),
 the Gaussian 88(TM) system (copyright 1988, Gaussian, Inc.),
 the Gaussian 86(TM) system (copyright 1986, Carnegie Mellon
 University), and the Gaussian 82(TM) system (copyright 1983,
 Carnegie Mellon University). Gaussian is a federally registered
 trademark of Gaussian, Inc.
  
 This software contains proprietary and confidential information,
 including trade secrets, belonging to Gaussian, Inc.
  
 This software is provided under written license and may be
 used, copied, transmitted, or stored only in accord with that
 written license.
  
 The following legend is applicable only to US Government
 contracts under FAR:
  
                    RESTRICTED RIGHTS LEGEND
  
 Use, reproduction and disclosure by the US Government is
 subject to restrictions as set forth in subparagraphs (a)
 and (c) of the Commercial Computer Software - Restricted
 Rights clause in FAR 52.227-19.
  
 Gaussian, Inc.
 340 Quinnipiac St., Bldg. 40, Wallingford CT 06492
  
  
 ---------------------------------------------------------------
 Warning -- This program may not be used in any manner that
 competes with the business of Gaussian, Inc. or will provide
 assistance to any competitor of Gaussian, Inc.  The licensee
 of this program is prohibited from giving any competitor of
 Gaussian, Inc. access to this program.  By using this program,
 the user acknowledges that Gaussian, Inc. is engaged in the
 business of creating and licensing software in the field of
 computational chemistry and represents and warrants to the
 licensee that it is not a competitor of Gaussian, Inc. and that
 it will not use this program in any manner prohibited above.
 ---------------------------------------------------------------
  

 Cite this work as:
 Gaussian 16, Revision A.03,
 M. J. Frisch, G. W. Trucks, H. B. Schlegel, G. E. Scuseria, 
 M. A. Robb, J. R. Cheeseman, G. Scalmani, V. Barone, 
 G. A. Petersson, H. Nakatsuji, X. Li, M. Caricato, A. V. Marenich, 
 J. Bloino, B. G. Janesko, R. Gomperts, B. Mennucci, H. P. Hratchian, 
 J. V. Ortiz, A. F. Izmaylov, J. L. Sonnenberg, D. Williams-Young, 
 F. Ding, F. Lipparini, F. Egidi, J. Goings, B. Peng, A. Petrone, 
 T. Henderson, D. Ranasinghe, V. G. Zakrzewski, J. Gao, N. Rega, 
 G. Zheng, W. Liang, M. Hada, M. Ehara, K. Toyota, R. Fukuda, 
 J. Hasegawa, M. Ishida, T. Nakajima, Y. Honda, O. Kitao, H. Nakai, 
 T. Vreven, K. Throssell, J. A. Montgomery, Jr., J. E. Peralta, 
 F. Ogliaro, M. J. Bearpark, J. J. Heyd, E. N. Brothers, K. N. Kudin, 
 V. N. Staroverov, T. A. Keith, R. Kobayashi, J. Normand, 
 K. Raghavachari, A. P. Rendell, J. C. Burant, S. S. Iyengar, 
 J. Tomasi, M. Cossi, J. M. Millam, M. Klene, C. Adamo, R. Cammi, 
 J. W. Ochterski, R. L. Martin, K. Morokuma, O. Farkas, 
 J. B. Foresman, and D. J. Fox, Gaussian, Inc., Wallingford CT, 2016.
 
 ******************************************
 Gaussian 16:  ES64L-G16RevA.03 25-Dec-2016
                20-Jul-2020 
 ******************************************
 %chk=2H2_H2_dummy_input_1.chk
 %nprocshared=12
 Will use up to   12 processors via shared memory.
 ---------------
 # scan hf/6-31g
 ---------------
 1/38=1,60=1,172=1/1,8;
 2/12=2,17=6,18=5,29=3,40=1/2;
 3/5=1,6=6,11=9,25=1,30=1/1,2,3;
 4//1;
 5/5=2,38=5/2;
 6/7=2,8=2,9=2,10=2,18=1,28=1/1;
 1/60=1/8(1);
 99/9=1/99;
 2/29=3/2;
 3/5=1,6=6,11=9,25=1,30=1/1,2,3;
 4/5=5,16=3,69=1/1;
 5/5=2,38=5/2;
 1/60=1/8(-4);
 99/9=1/99;
 --------------------
 2H2_H2_dummy_input_1
 --------------------
 Symbolic Z-matrix:
 Charge =  0 Multiplicity = 1
 O
 H                    1    B1
 H                    1    B2       2    A1
 O                    1    B3       2    A2       3    D1       0
 H                    4    B4       1    A3       2    D2       0
 H                    4    B5       1    A4       2    D3       0
 X                    1    B6       2    A5       3    D4       0
 H                    7    B7       1    A6       2    D5       0
 H                    7    B8       4    A6       5    D6       0
       Variables:
  B1                    0.97                     
  B2                    0.97                     
  A1                  109.471                    
  B3                    4.6                      
  A2                  125.2645                   
  D1                  180.                       
  B4                    0.97                     
  A3                  125.2645                   
  D2                    0.                       
  B5                    0.97                     
  A4                  125.2645                   
  D3                  180.                       
  B6                    2.3    Scan 10    0.1    
  A5                  125.2645                   
  D4                  180.                       
  B7                    0.36498                  
  A6                   90.                       
  D5                    0.                       
  B8                    0.36498                  
  D6                  180.                       
 
     1 tetrahedral angles replaced.
    1 tetrahedral angles replaced.
 Scan the potential surface.
 Variable   Value     No. Steps Step-Size
 -------- ----------- --------- ---------
    13       2.300000      10      0.1000
 A total of     11 points will be computed.
 ---------------------------------------------------------------------------------------------------
                            Z-MATRIX (ANGSTROMS AND DEGREES)
   CD    Cent   Atom    N1       Length/X        N2       Alpha/Y        N3        Beta/Z          J
 ---------------------------------------------------------------------------------------------------
      1      1  O 
      2      2  H        1   0.970000(     1)
      3      3  H        1   0.970000(     2)      2  109.471(     9)
      4      4  O        1   4.600000(     3)      2  125.265(    10)      3  180.000(    16)      0
      5      5  H        4   0.970000(     4)      1  125.265(    11)      2    0.000(    17)      0
      6      6  H        4   0.970000(     5)      1  125.265(    12)      2  180.000(    18)      0
      7         X        1   2.300000(     6)      2  125.265(    13)      3  180.000(    19)      0
      8      7  H        7   0.364980(     7)      1   90.000(    14)      2    0.000(    20)      0
      9      8  H        7   0.364980(     8)      4   90.000(    15)      5  180.000(    21)      0
 ---------------------------------------------------------------------------------------------------
                         Z-Matrix orientation:                         
 ---------------------------------------------------------------------
 Center     Atomic      Atomic             Coordinates (Angstroms)
 Number     Number       Type             X           Y           Z
 ---------------------------------------------------------------------
      1          8           0        0.000000    0.000000    0.000000
      2          1           0        0.000000    0.000000    0.970000
      3          1           0        0.914525    0.000000   -0.323333
      4          8           0       -3.755879   -0.000000   -2.655818
      5          1           0       -4.670405   -0.000000   -2.332489
      6          1           0       -3.755879   -0.000000   -3.625818
      7         -1           0       -1.877940   -0.000000   -1.327909
      8          1           0       -2.088661   -0.000000   -1.029905
      9          1           0       -1.667218   -0.000000   -1.625914
 ---------------------------------------------------------------------
                    Distance matrix (angstroms):
                    1          2          3          4          5
     1  O    0.000000
     2  H    0.970000   0.000000
     3  H    0.970000   1.584003   0.000000
     4  O    4.600000   5.220459   5.220456   0.000000
     5  H    5.220459   5.720063   5.935330   0.970000   0.000000
     6  H    5.220459   5.935333   5.720060   0.970000   1.584001
     7  X    2.300000   2.967666   2.967664   2.300000   2.967666
     8  H    2.328779   2.891734   3.085186   2.328779   2.891734
     9  H    2.328779   3.085188   2.891731   2.328779   3.085188
                    6          7          8          9
     6  H    0.000000
     7  X    2.967666   0.000000
     8  H    3.085188   0.364980   0.000000
     9  H    2.891734   0.364980   0.729960   0.000000
 Stoichiometry    H6O2
 Framework group  CS[SG(H6O2)]
 Deg. of freedom    13
 Full point group                 CS      NOp   2
 Largest Abelian subgroup         CS      NOp   2
 Largest concise Abelian subgroup C1      NOp   1
                         Standard orientation:                         
 ---------------------------------------------------------------------
 Center     Atomic      Atomic             Coordinates (Angstroms)
 Number     Number       Type             X           Y           Z
 ---------------------------------------------------------------------
      1          8           0        0.000000   -2.300000    0.000000
      2          1           0        0.792001   -2.860031    0.000000
      3          1           0       -0.792003   -2.860028    0.000000
      4          8           0        0.000000    2.300000   -0.000000
      5          1           0        0.792001    2.860031   -0.000000
      6          1           0       -0.792001    2.860031   -0.000000
      7          1           0        0.364980   -0.000000    0.000000
      8          1           0       -0.364980   -0.000000   -0.000000
 ---------------------------------------------------------------------
 Rotational constants (GHZ):         180.6730268           2.4993853           2.4652812
 Standard basis: 6-31G (6D, 7F)
 There are    26 symmetry adapted cartesian basis functions of A'  symmetry.
 There are     4 symmetry adapted cartesian basis functions of A"  symmetry.
 There are    26 symmetry adapted basis functions of A'  symmetry.
 There are     4 symmetry adapted basis functions of A"  symmetry.
    30 basis functions,    68 primitive gaussians,    30 cartesian basis functions
    11 alpha electrons       11 beta electrons
       nuclear repulsion energy        38.5095581663 Hartrees.
 NAtoms=    8 NActive=    8 NUniq=    8 SFac= 1.00D+00 NAtFMM=   60 NAOKFM=F Big=F
 Integral buffers will be    131072 words long.
 Raffenetti 1 integral format.
 Two-electron integral symmetry is turned on.
 One-electron integrals computed using PRISM.
 NBasis=    30 RedAO= T EigKep=  7.07D-02  NBF=    26     4
 NBsUse=    30 1.00D-06 EigRej= -1.00D+00 NBFU=    26     4
 ExpMin= 1.61D-01 ExpMax= 5.48D+03 ExpMxC= 8.25D+02 IAcc=3 IRadAn=         5 AccDes= 0.00D+00
 Harris functional with IExCor=  205 and IRadAn=       5 diagonalized for initial guess.
 HarFok:  IExCor=  205 AccDes= 0.00D+00 IRadAn=         5 IDoV= 1 UseB2=F ITyADJ=14
 ICtDFT=  3500011 ScaDFX=  1.000000  1.000000  1.000000  1.000000
 FoFCou: FMM=F IPFlag=           0 FMFlag=      100000 FMFlg1=           0
         NFxFlg=           0 DoJE=T BraDBF=F KetDBF=T FulRan=T
         wScrn=  0.000000 ICntrl=       500 IOpCl=  0 I1Cent=   200000004 NGrid=           0
         NMat0=    1 NMatS0=      1 NMatT0=    0 NMatD0=    1 NMtDS0=    0 NMtDT0=    0
 Petite list used in FoFCou.
 Initial guess orbital symmetries:
       Occupied  (A') (A') (A') (A') (A') (A') (A') (A') (A') (A")
                 (A")
       Virtual   (A') (A') (A') (A') (A') (A') (A') (A") (A") (A')
                 (A') (A') (A') (A') (A') (A') (A') (A') (A')
 The electronic state of the initial guess is 1-A'.
 Keep R1 ints in memory in symmetry-blocked form, NReq=2532491.
 Requested convergence on RMS density matrix=1.00D-08 within 128 cycles.
 Requested convergence on MAX density matrix=1.00D-06.
 Requested convergence on             energy=1.00D-06.
 No special actions if energy rises.
 SCF Done:  E(RHF) =  -153.076373366     A.U. after   10 cycles
            NFock= 10  Conv=0.20D-08     -V/T= 1.9998

 **********************************************************************

            Population analysis using the SCF density.

 **********************************************************************

 Orbital symmetries:
       Occupied  (A') (A') (A') (A') (A') (A') (A') (A') (A") (A")
                 (A')
       Virtual   (A') (A') (A') (A') (A') (A') (A') (A') (A') (A')
                 (A") (A") (A') (A') (A') (A') (A') (A') (A')
 The electronic state is 1-A'.
 Alpha  occ. eigenvalues --  -20.54429 -20.54429  -1.33213  -1.33204  -0.69864
 Alpha  occ. eigenvalues --   -0.69859  -0.57279  -0.53810  -0.48511  -0.48506
 Alpha  occ. eigenvalues --   -0.45996
 Alpha virt. eigenvalues --    0.21093   0.21698   0.30575   0.30724   0.31434
 Alpha virt. eigenvalues --    0.91002   1.09389   1.11737   1.15772   1.15910
 Alpha virt. eigenvalues --    1.17874   1.17909   1.21472   1.39311   1.39653
 Alpha virt. eigenvalues --    1.41010   1.57861   1.69165   1.70949
          Condensed to atoms (all electrons):
               1          2          3          4          5          6
     1  O    8.318602   0.253233   0.253233   0.000002  -0.000001  -0.000001
     2  H    0.253233   0.373990  -0.026503  -0.000001   0.000000   0.000000
     3  H    0.253233  -0.026503   0.373990  -0.000001   0.000000   0.000000
     4  O    0.000002  -0.000001  -0.000001   8.318601   0.253233   0.253233
     5  H   -0.000001   0.000000   0.000000   0.253233   0.373991  -0.026503
     6  H   -0.000001   0.000000   0.000000   0.253233  -0.026503   0.373991
     7  H   -0.015392   0.001171   0.000871  -0.015392   0.001171   0.000871
     8  H   -0.015392   0.000871   0.001171  -0.015392   0.000871   0.001171
               7          8
     1  O   -0.015392  -0.015392
     2  H    0.001171   0.000871
     3  H    0.000871   0.001171
     4  O   -0.015392  -0.015392
     5  H    0.001171   0.000871
     6  H    0.000871   0.001171
     7  H    0.608893   0.417998
     8  H    0.417998   0.608894
 Mulliken charges:
               1
     1  O   -0.794284
     2  H    0.397238
     3  H    0.397238
     4  O   -0.794284
     5  H    0.397238
     6  H    0.397238
     7  H   -0.000192
     8  H   -0.000192
 Sum of Mulliken charges =   0.00000
 Mulliken charges with hydrogens summed into heavy atoms:
               1
     1  O    0.000192
     4  O   -0.000192
 Electronic spatial extent (au):  <R**2>=            441.5930
 Charge=             -0.0000 electrons
 Dipole moment (field-independent basis, Debye):
    X=             -0.0000    Y=              0.0000    Z=             -0.0000  Tot=              0.0000
 Quadrupole moment (field-independent basis, Debye-Ang):
   XX=             -9.6158   YY=              9.2014   ZZ=            -16.5124
   XY=              0.0000   XZ=              0.0000   YZ=             -0.0000
 Traceless Quadrupole moment (field-independent basis, Debye-Ang):
   XX=             -3.9735   YY=             14.8437   ZZ=            -10.8701
   XY=              0.0000   XZ=              0.0000   YZ=             -0.0000
 Octapole moment (field-independent basis, Debye-Ang**2):
  XXX=             -0.0000  YYY=              0.0001  ZZZ=             -0.0000  XYY=             -0.0000
  XXY=             -0.0000  XXZ=              0.0000  XZZ=             -0.0000  YZZ=              0.0000
  YYZ=             -0.0000  XYZ=             -0.0000
 Hexadecapole moment (field-independent basis, Debye-Ang**3):
 XXXX=            -14.1581 YYYY=           -148.8771 ZZZZ=            -12.3389 XXXY=              0.0000
 XXXZ=             -0.0000 YYYX=             -0.0000 YYYZ=             -0.0000 ZZZX=             -0.0000
 ZZZY=              0.0000 XXYY=            -37.9296 XXZZ=             -4.9952 YYZZ=            -84.9672
 XXYZ=              0.0000 YYXZ=              0.0000 ZZXY=             -0.0000
 N-N= 3.850955816633D+01 E-N=-4.408987167253D+02  KE= 1.531088518370D+02
 Symmetry A'   KE= 1.439946831027D+02
 Symmetry A"   KE= 9.114168734323D+00
 Variable Step   Value    
 -------- ---- -----------
    13       1    4.535343
 ---------------------------------------------------------------------------------------------------
                            Z-MATRIX (ANGSTROMS AND DEGREES)
   CD    Cent   Atom    N1       Length/X        N2       Alpha/Y        N3        Beta/Z          J
 ---------------------------------------------------------------------------------------------------
      1      1  O 
      2      2  H        1   0.970000(     1)
      3      3  H        1   0.970000(     2)      2  109.471(     9)
      4      4  O        1   4.600000(     3)      2  125.265(    10)      3  180.000(    16)      0
      5      5  H        4   0.970000(     4)      1  125.265(    11)      2    0.000(    17)      0
      6      6  H        4   0.970000(     5)      1  125.265(    12)      2  180.000(    18)      0
      7         X        1   2.400000(     6)      2  125.265(    13)      3  180.000(    19)      0
      8      7  H        7   0.364980(     7)      1   90.000(    14)      2    0.000(    20)      0
      9      8  H        7   0.364980(     8)      4   90.000(    15)      5  180.000(    21)      0
 ---------------------------------------------------------------------------------------------------
                         Z-Matrix orientation:                         
 ---------------------------------------------------------------------
 Center     Atomic      Atomic             Coordinates (Angstroms)
 Number     Number       Type             X           Y           Z
 ---------------------------------------------------------------------
      1          8           0        0.000000    0.000000    0.000000
      2          1           0        0.000000    0.000000    0.970000
      3          1           0        0.914525    0.000000   -0.323333
      4          8           0       -3.755879   -0.000000   -2.655818
      5          1           0       -4.670405   -0.000000   -2.332489
      6          1           0       -3.755879   -0.000000   -3.625818
      7         -1           0       -1.959589   -0.000000   -1.385644
      8          1           0       -2.170311   -0.000000   -1.087640
      9          1           0       -1.748867   -0.000000   -1.683649
 ---------------------------------------------------------------------
                    Distance matrix (angstroms):
                    1          2          3          4          5
     1  O    0.000000
     2  H    0.970000   0.000000
     3  H    0.970000   1.584003   0.000000
     4  O    4.600000   5.220459   5.220456   0.000000
     5  H    5.220459   5.720063   5.935330   0.970000   0.000000
     6  H    5.220459   5.935333   5.720060   0.970000   1.584001
     7  X    2.400000   3.064156   3.064153   2.200000   2.871417
     8  H    2.427594   2.990674   3.178109   2.230070   2.792869
     9  H    2.427594   3.178111   2.990671   2.230070   2.992721
                    6          7          8          9
     6  H    0.000000
     7  X    2.871417   0.000000
     8  H    2.992721   0.364980   0.000000
     9  H    2.792869   0.364980   0.729960   0.000000
 Stoichiometry    H6O2
 Framework group  CS[SG(H6O2)]
 Deg. of freedom    13
 Full point group                 CS      NOp   2
 Largest Abelian subgroup         CS      NOp   2
 Largest concise Abelian subgroup C1      NOp   1
                         Standard orientation:                         
 ---------------------------------------------------------------------
 Center     Atomic      Atomic             Coordinates (Angstroms)
 Number     Number       Type             X           Y           Z
 ---------------------------------------------------------------------
      1          8           0        0.000000   -2.309091    0.000000
      2          1           0        0.792001   -2.869122    0.000000
      3          1           0       -0.792003   -2.869119    0.000000
      4          8           0        0.000000    2.290909   -0.000000
      5          1           0        0.792001    2.850940   -0.000000
      6          1           0       -0.792001    2.850940   -0.000000
      7          1           0        0.364980    0.090909    0.000000
      8          1           0       -0.364980    0.090909   -0.000000
 ---------------------------------------------------------------------
 Rotational constants (GHZ):         180.6730268           2.4991493           2.4650517
 Standard basis: 6-31G (6D, 7F)
 There are    26 symmetry adapted cartesian basis functions of A'  symmetry.
 There are     4 symmetry adapted cartesian basis functions of A"  symmetry.
 There are    26 symmetry adapted basis functions of A'  symmetry.
 There are     4 symmetry adapted basis functions of A"  symmetry.
    30 basis functions,    68 primitive gaussians,    30 cartesian basis functions
    11 alpha electrons       11 beta electrons
       nuclear repulsion energy        38.5239107007 Hartrees.
 NAtoms=    8 NActive=    8 NUniq=    8 SFac= 1.00D+00 NAtFMM=   60 NAOKFM=F Big=F
 Integral buffers will be    131072 words long.
 Raffenetti 1 integral format.
 Two-electron integral symmetry is turned on.
 One-electron integrals computed using PRISM.
 NBasis=    30 RedAO= T EigKep=  7.07D-02  NBF=    26     4
 NBsUse=    30 1.00D-06 EigRej= -1.00D+00 NBFU=    26     4
 Initial guess from the checkpoint file:  "2H2_H2_dummy_input_1.chk"
 B after Tr=     0.000000    0.000000   -0.000000
         Rot=    1.000000   -0.000000   -0.000000   -0.000000 Ang=   0.00 deg.
 Initial guess orbital symmetries:
       Occupied  (A') (A') (A') (A') (A') (A') (A') (A') (A") (A")
                 (A')
       Virtual   (A') (A') (A') (A') (A') (A') (A') (A') (A') (A')
                 (A") (A") (A') (A') (A') (A') (A') (A') (A')
 ExpMin= 1.61D-01 ExpMax= 5.48D+03 ExpMxC= 8.25D+02 IAcc=2 IRadAn=         4 AccDes= 0.00D+00
 Harris functional with IExCor=  205 and IRadAn=       4 diagonalized for initial guess.
 HarFok:  IExCor=  205 AccDes= 0.00D+00 IRadAn=         4 IDoV= 1 UseB2=F ITyADJ=14
 ICtDFT=  3500011 ScaDFX=  1.000000  1.000000  1.000000  1.000000
 FoFCou: FMM=F IPFlag=           0 FMFlag=      100000 FMFlg1=           0
         NFxFlg=           0 DoJE=T BraDBF=F KetDBF=T FulRan=T
         wScrn=  0.000000 ICntrl=       500 IOpCl=  0 I1Cent=   200000004 NGrid=           0
         NMat0=    1 NMatS0=      1 NMatT0=    0 NMatD0=    1 NMtDS0=    0 NMtDT0=    0
 Petite list used in FoFCou.
 Keep R1 ints in memory in symmetry-blocked form, NReq=2532539.
 Requested convergence on RMS density matrix=1.00D-08 within 128 cycles.
 Requested convergence on MAX density matrix=1.00D-06.
 Requested convergence on             energy=1.00D-06.
 No special actions if energy rises.
 SCF Done:  E(RHF) =  -153.075547929     A.U. after    8 cycles
            NFock=  8  Conv=0.28D-08     -V/T= 1.9998
 Variable Step   Value    
 -------- ---- -----------
    13       2    4.724315
 ---------------------------------------------------------------------------------------------------
                            Z-MATRIX (ANGSTROMS AND DEGREES)
   CD    Cent   Atom    N1       Length/X        N2       Alpha/Y        N3        Beta/Z          J
 ---------------------------------------------------------------------------------------------------
      1      1  O 
      2      2  H        1   0.970000(     1)
      3      3  H        1   0.970000(     2)      2  109.471(     9)
      4      4  O        1   4.600000(     3)      2  125.265(    10)      3  180.000(    16)      0
      5      5  H        4   0.970000(     4)      1  125.265(    11)      2    0.000(    17)      0
      6      6  H        4   0.970000(     5)      1  125.265(    12)      2  180.000(    18)      0
      7         X        1   2.500000(     6)      2  125.265(    13)      3  180.000(    19)      0
      8      7  H        7   0.364980(     7)      1   90.000(    14)      2    0.000(    20)      0
      9      8  H        7   0.364980(     8)      4   90.000(    15)      5  180.000(    21)      0
 ---------------------------------------------------------------------------------------------------
                         Z-Matrix orientation:                         
 ---------------------------------------------------------------------
 Center     Atomic      Atomic             Coordinates (Angstroms)
 Number     Number       Type             X           Y           Z
 ---------------------------------------------------------------------
      1          8           0        0.000000    0.000000    0.000000
      2          1           0        0.000000    0.000000    0.970000
      3          1           0        0.914525    0.000000   -0.323333
      4          8           0       -3.755879   -0.000000   -2.655818
      5          1           0       -4.670405   -0.000000   -2.332489
      6          1           0       -3.755879   -0.000000   -3.625818
      7         -1           0       -2.041239   -0.000000   -1.443380
      8          1           0       -2.251961   -0.000000   -1.145375
      9          1           0       -1.830517   -0.000000   -1.741384
 ---------------------------------------------------------------------
                    Distance matrix (angstroms):
                    1          2          3          4          5
     1  O    0.000000
     2  H    0.970000   0.000000
     3  H    0.970000   1.584003   0.000000
     4  O    4.600000   5.220459   5.220456   0.000000
     5  H    5.220459   5.720063   5.935330   0.970000   0.000000
     6  H    5.220459   5.935333   5.720060   0.970000   1.584001
     7  X    2.500000   3.160863   3.160861   2.100000   2.775434
     8  H    2.526502   3.089683   3.271450   2.131481   2.694089
     9  H    2.526502   3.271452   3.089680   2.131481   2.900753
                    6          7          8          9
     6  H    0.000000
     7  X    2.775434   0.000000
     8  H    2.900753   0.364980   0.000000
     9  H    2.694089   0.364980   0.729960   0.000000
 Stoichiometry    H6O2
 Framework group  CS[SG(H6O2)]
 Deg. of freedom    13
 Full point group                 CS      NOp   2
 Largest Abelian subgroup         CS      NOp   2
 Largest concise Abelian subgroup C1      NOp   1
                         Standard orientation:                         
 ---------------------------------------------------------------------
 Center     Atomic      Atomic             Coordinates (Angstroms)
 Number     Number       Type             X           Y           Z
 ---------------------------------------------------------------------
      1          8           0        0.000000   -2.318182    0.000000
      2          1           0        0.792001   -2.878213    0.000000
      3          1           0       -0.792003   -2.878210    0.000000
      4          8           0        0.000000    2.281818   -0.000000
      5          1           0        0.792001    2.841849   -0.000000
      6          1           0       -0.792001    2.841849   -0.000000
      7          1           0        0.364980    0.181818   -0.000000
      8          1           0       -0.364980    0.181818   -0.000000
 ---------------------------------------------------------------------
 Rotational constants (GHZ):         180.6730268           2.4984418           2.4643633
 Standard basis: 6-31G (6D, 7F)
 There are    26 symmetry adapted cartesian basis functions of A'  symmetry.
 There are     4 symmetry adapted cartesian basis functions of A"  symmetry.
 There are    26 symmetry adapted basis functions of A'  symmetry.
 There are     4 symmetry adapted basis functions of A"  symmetry.
    30 basis functions,    68 primitive gaussians,    30 cartesian basis functions
    11 alpha electrons       11 beta electrons
       nuclear repulsion energy        38.5672462023 Hartrees.
 NAtoms=    8 NActive=    8 NUniq=    8 SFac= 1.00D+00 NAtFMM=   60 NAOKFM=F Big=F
 Integral buffers will be    131072 words long.
 Raffenetti 1 integral format.
 Two-electron integral symmetry is turned on.
 One-electron integrals computed using PRISM.
 NBasis=    30 RedAO= T EigKep=  7.07D-02  NBF=    26     4
 NBsUse=    30 1.00D-06 EigRej= -1.00D+00 NBFU=    26     4
 Initial guess from the checkpoint file:  "2H2_H2_dummy_input_1.chk"
 B after Tr=    -0.000000   -0.000000   -0.000000
         Rot=    1.000000   -0.000000   -0.000000   -0.000000 Ang=   0.00 deg.
 Initial guess orbital symmetries:
       Occupied  (A') (A') (A') (A') (A') (A') (A') (A') (A") (A")
                 (A')
       Virtual   (A') (A') (A') (A') (A') (A') (A') (A') (A') (A')
                 (A") (A") (A') (A') (A') (A') (A') (A') (A')
 ExpMin= 1.61D-01 ExpMax= 5.48D+03 ExpMxC= 8.25D+02 IAcc=2 IRadAn=         4 AccDes= 0.00D+00
 Harris functional with IExCor=  205 and IRadAn=       4 diagonalized for initial guess.
 HarFok:  IExCor=  205 AccDes= 0.00D+00 IRadAn=         4 IDoV= 1 UseB2=F ITyADJ=14
 ICtDFT=  3500011 ScaDFX=  1.000000  1.000000  1.000000  1.000000
 FoFCou: FMM=F IPFlag=           0 FMFlag=      100000 FMFlg1=           0
         NFxFlg=           0 DoJE=T BraDBF=F KetDBF=T FulRan=T
         wScrn=  0.000000 ICntrl=       500 IOpCl=  0 I1Cent=   200000004 NGrid=           0
         NMat0=    1 NMatS0=      1 NMatT0=    0 NMatD0=    1 NMtDS0=    0 NMtDT0=    0
 Petite list used in FoFCou.
 Keep R1 ints in memory in symmetry-blocked form, NReq=2532539.
 Requested convergence on RMS density matrix=1.00D-08 within 128 cycles.
 Requested convergence on MAX density matrix=1.00D-06.
 Requested convergence on             energy=1.00D-06.
 No special actions if energy rises.
 SCF Done:  E(RHF) =  -153.072985734     A.U. after    8 cycles
            NFock=  8  Conv=0.58D-08     -V/T= 1.9997
 Variable Step   Value    
 -------- ---- -----------
    13       3    4.913288
 ---------------------------------------------------------------------------------------------------
                            Z-MATRIX (ANGSTROMS AND DEGREES)
   CD    Cent   Atom    N1       Length/X        N2       Alpha/Y        N3        Beta/Z          J
 ---------------------------------------------------------------------------------------------------
      1      1  O 
      2      2  H        1   0.970000(     1)
      3      3  H        1   0.970000(     2)      2  109.471(     9)
      4      4  O        1   4.600000(     3)      2  125.265(    10)      3  180.000(    16)      0
      5      5  H        4   0.970000(     4)      1  125.265(    11)      2    0.000(    17)      0
      6      6  H        4   0.970000(     5)      1  125.265(    12)      2  180.000(    18)      0
      7         X        1   2.600000(     6)      2  125.265(    13)      3  180.000(    19)      0
      8      7  H        7   0.364980(     7)      1   90.000(    14)      2    0.000(    20)      0
      9      8  H        7   0.364980(     8)      4   90.000(    15)      5  180.000(    21)      0
 ---------------------------------------------------------------------------------------------------
                         Z-Matrix orientation:                         
 ---------------------------------------------------------------------
 Center     Atomic      Atomic             Coordinates (Angstroms)
 Number     Number       Type             X           Y           Z
 ---------------------------------------------------------------------
      1          8           0        0.000000    0.000000    0.000000
      2          1           0        0.000000    0.000000    0.970000
      3          1           0        0.914525    0.000000   -0.323333
      4          8           0       -3.755879   -0.000000   -2.655818
      5          1           0       -4.670405   -0.000000   -2.332489
      6          1           0       -3.755879   -0.000000   -3.625818
      7         -1           0       -2.122888   -0.000000   -1.501115
      8          1           0       -2.333610   -0.000000   -1.203110
      9          1           0       -1.912166   -0.000000   -1.799119
 ---------------------------------------------------------------------
                    Distance matrix (angstroms):
                    1          2          3          4          5
     1  O    0.000000
     2  H    0.970000   0.000000
     3  H    0.970000   1.584003   0.000000
     4  O    4.600000   5.220459   5.220456   0.000000
     5  H    5.220459   5.720063   5.935330   0.970000   0.000000
     6  H    5.220459   5.935333   5.720060   0.970000   1.584001
     7  X    2.600000   3.257770   3.257767   2.000000   2.679743
     8  H    2.625492   3.188753   3.365173   2.033030   2.595401
     9  H    2.625492   3.365175   3.188750   2.033030   2.809335
                    6          7          8          9
     6  H    0.000000
     7  X    2.679743   0.000000
     8  H    2.809335   0.364980   0.000000
     9  H    2.595401   0.364980   0.729960   0.000000
 Stoichiometry    H6O2
 Framework group  CS[SG(H6O2)]
 Deg. of freedom    13
 Full point group                 CS      NOp   2
 Largest Abelian subgroup         CS      NOp   2
 Largest concise Abelian subgroup C1      NOp   1
                         Standard orientation:                         
 ---------------------------------------------------------------------
 Center     Atomic      Atomic             Coordinates (Angstroms)
 Number     Number       Type             X           Y           Z
 ---------------------------------------------------------------------
      1          8           0        0.000000   -2.327273   -0.000000
      2          1           0        0.792001   -2.887304   -0.000000
      3          1           0       -0.792003   -2.887301   -0.000000
      4          8           0        0.000000    2.272727    0.000000
      5          1           0        0.792001    2.832758    0.000000
      6          1           0       -0.792001    2.832758    0.000000
      7          1           0        0.364980    0.272727    0.000000
      8          1           0       -0.364980    0.272727    0.000000
 ---------------------------------------------------------------------
 Rotational constants (GHZ):         180.6730268           2.4972635           2.4632169
 Standard basis: 6-31G (6D, 7F)
 There are    26 symmetry adapted cartesian basis functions of A'  symmetry.
 There are     4 symmetry adapted cartesian basis functions of A"  symmetry.
 There are    26 symmetry adapted basis functions of A'  symmetry.
 There are     4 symmetry adapted basis functions of A"  symmetry.
    30 basis functions,    68 primitive gaussians,    30 cartesian basis functions
    11 alpha electrons       11 beta electrons
       nuclear repulsion energy        38.6404112836 Hartrees.
 NAtoms=    8 NActive=    8 NUniq=    8 SFac= 1.00D+00 NAtFMM=   60 NAOKFM=F Big=F
 Integral buffers will be    131072 words long.
 Raffenetti 1 integral format.
 Two-electron integral symmetry is turned on.
 One-electron integrals computed using PRISM.
 NBasis=    30 RedAO= T EigKep=  7.07D-02  NBF=    26     4
 NBsUse=    30 1.00D-06 EigRej= -1.00D+00 NBFU=    26     4
 Initial guess from the checkpoint file:  "2H2_H2_dummy_input_1.chk"
 B after Tr=     0.000000    0.000000   -0.000000
         Rot=    1.000000   -0.000000   -0.000000   -0.000000 Ang=   0.00 deg.
 Initial guess orbital symmetries:
       Occupied  (A') (A') (A') (A') (A') (A') (A') (A') (A") (A")
                 (A')
       Virtual   (A') (A') (A') (A') (A') (A') (A') (A') (A') (A')
                 (A") (A") (A') (A') (A') (A') (A') (A') (A')
 ExpMin= 1.61D-01 ExpMax= 5.48D+03 ExpMxC= 8.25D+02 IAcc=2 IRadAn=         4 AccDes= 0.00D+00
 Harris functional with IExCor=  205 and IRadAn=       4 diagonalized for initial guess.
 HarFok:  IExCor=  205 AccDes= 0.00D+00 IRadAn=         4 IDoV= 1 UseB2=F ITyADJ=14
 ICtDFT=  3500011 ScaDFX=  1.000000  1.000000  1.000000  1.000000
 FoFCou: FMM=F IPFlag=           0 FMFlag=      100000 FMFlg1=           0
         NFxFlg=           0 DoJE=T BraDBF=F KetDBF=T FulRan=T
         wScrn=  0.000000 ICntrl=       500 IOpCl=  0 I1Cent=   200000004 NGrid=           0
         NMat0=    1 NMatS0=      1 NMatT0=    0 NMatD0=    1 NMtDS0=    0 NMtDT0=    0
 Petite list used in FoFCou.
 Keep R1 ints in memory in symmetry-blocked form, NReq=2532635.
 Requested convergence on RMS density matrix=1.00D-08 within 128 cycles.
 Requested convergence on MAX density matrix=1.00D-06.
 Requested convergence on             energy=1.00D-06.
 No special actions if energy rises.
 SCF Done:  E(RHF) =  -153.068423444     A.U. after    9 cycles
            NFock=  9  Conv=0.16D-08     -V/T= 1.9995
 Variable Step   Value    
 -------- ---- -----------
    13       4    5.102261
 ---------------------------------------------------------------------------------------------------
                            Z-MATRIX (ANGSTROMS AND DEGREES)
   CD    Cent   Atom    N1       Length/X        N2       Alpha/Y        N3        Beta/Z          J
 ---------------------------------------------------------------------------------------------------
      1      1  O 
      2      2  H        1   0.970000(     1)
      3      3  H        1   0.970000(     2)      2  109.471(     9)
      4      4  O        1   4.600000(     3)      2  125.265(    10)      3  180.000(    16)      0
      5      5  H        4   0.970000(     4)      1  125.265(    11)      2    0.000(    17)      0
      6      6  H        4   0.970000(     5)      1  125.265(    12)      2  180.000(    18)      0
      7         X        1   2.700000(     6)      2  125.265(    13)      3  180.000(    19)      0
      8      7  H        7   0.364980(     7)      1   90.000(    14)      2    0.000(    20)      0
      9      8  H        7   0.364980(     8)      4   90.000(    15)      5  180.000(    21)      0
 ---------------------------------------------------------------------------------------------------
                         Z-Matrix orientation:                         
 ---------------------------------------------------------------------
 Center     Atomic      Atomic             Coordinates (Angstroms)
 Number     Number       Type             X           Y           Z
 ---------------------------------------------------------------------
      1          8           0        0.000000    0.000000    0.000000
      2          1           0        0.000000    0.000000    0.970000
      3          1           0        0.914525    0.000000   -0.323333
      4          8           0       -3.755879   -0.000000   -2.655818
      5          1           0       -4.670405   -0.000000   -2.332489
      6          1           0       -3.755879   -0.000000   -3.625818
      7         -1           0       -2.204538   -0.000000   -1.558850
      8          1           0       -2.415260   -0.000000   -1.260845
      9          1           0       -1.993816   -0.000000   -1.856854
 ---------------------------------------------------------------------
                    Distance matrix (angstroms):
                    1          2          3          4          5
     1  O    0.000000
     2  H    0.970000   0.000000
     3  H    0.970000   1.584003   0.000000
     4  O    4.600000   5.220459   5.220456   0.000000
     5  H    5.220459   5.720063   5.935330   0.970000   0.000000
     6  H    5.220459   5.935333   5.720060   0.970000   1.584001
     7  X    2.700000   3.354858   3.354855   1.900000   2.584380
     8  H    2.724557   3.287879   3.459247   1.934738   2.496818
     9  H    2.724557   3.459250   3.287877   1.934738   2.718521
                    6          7          8          9
     6  H    0.000000
     7  X    2.584380   0.000000
     8  H    2.718521   0.364980   0.000000
     9  H    2.496818   0.364980   0.729960   0.000000
 Stoichiometry    H6O2
 Framework group  CS[SG(H6O2)]
 Deg. of freedom    13
 Full point group                 CS      NOp   2
 Largest Abelian subgroup         CS      NOp   2
 Largest concise Abelian subgroup C1      NOp   1
                         Standard orientation:                         
 ---------------------------------------------------------------------
 Center     Atomic      Atomic             Coordinates (Angstroms)
 Number     Number       Type             X           Y           Z
 ---------------------------------------------------------------------
      1          8           0        0.000000   -2.336364   -0.000000
      2          1           0        0.792001   -2.896395    0.000000
      3          1           0       -0.792003   -2.896392   -0.000000
      4          8           0        0.000000    2.263636    0.000000
      5          1           0        0.792001    2.823668    0.000000
      6          1           0       -0.792001    2.823668   -0.000000
      7          1           0        0.364980    0.363636    0.000000
      8          1           0       -0.364980    0.363636   -0.000000
 ---------------------------------------------------------------------
 Rotational constants (GHZ):         180.6730268           2.4956158           2.4616138
 Standard basis: 6-31G (6D, 7F)
 There are    26 symmetry adapted cartesian basis functions of A'  symmetry.
 There are     4 symmetry adapted cartesian basis functions of A"  symmetry.
 There are    26 symmetry adapted basis functions of A'  symmetry.
 There are     4 symmetry adapted basis functions of A"  symmetry.
    30 basis functions,    68 primitive gaussians,    30 cartesian basis functions
    11 alpha electrons       11 beta electrons
       nuclear repulsion energy        38.7448614027 Hartrees.
 NAtoms=    8 NActive=    8 NUniq=    8 SFac= 1.00D+00 NAtFMM=   60 NAOKFM=F Big=F
 Integral buffers will be    131072 words long.
 Raffenetti 1 integral format.
 Two-electron integral symmetry is turned on.
 One-electron integrals computed using PRISM.
 NBasis=    30 RedAO= T EigKep=  7.07D-02  NBF=    26     4
 NBsUse=    30 1.00D-06 EigRej= -1.00D+00 NBFU=    26     4
 Initial guess from the checkpoint file:  "2H2_H2_dummy_input_1.chk"
 B after Tr=     0.000000   -0.000000    0.000000
         Rot=    1.000000    0.000000    0.000000   -0.000000 Ang=   0.00 deg.
 Initial guess orbital symmetries:
       Occupied  (A') (A') (A') (A') (A') (A') (A') (A') (A") (A")
                 (A')
       Virtual   (A') (A') (A') (A') (A') (A') (A') (A') (A') (A')
                 (A") (A") (A') (A') (A') (A') (A') (A') (A')
 ExpMin= 1.61D-01 ExpMax= 5.48D+03 ExpMxC= 8.25D+02 IAcc=2 IRadAn=         4 AccDes= 0.00D+00
 Harris functional with IExCor=  205 and IRadAn=       4 diagonalized for initial guess.
 HarFok:  IExCor=  205 AccDes= 0.00D+00 IRadAn=         4 IDoV= 1 UseB2=F ITyADJ=14
 ICtDFT=  3500011 ScaDFX=  1.000000  1.000000  1.000000  1.000000
 FoFCou: FMM=F IPFlag=           0 FMFlag=      100000 FMFlg1=           0
         NFxFlg=           0 DoJE=T BraDBF=F KetDBF=T FulRan=T
         wScrn=  0.000000 ICntrl=       500 IOpCl=  0 I1Cent=   200000004 NGrid=           0
         NMat0=    1 NMatS0=      1 NMatT0=    0 NMatD0=    1 NMtDS0=    0 NMtDT0=    0
 Petite list used in FoFCou.
 Keep R1 ints in memory in symmetry-blocked form, NReq=2532683.
 Requested convergence on RMS density matrix=1.00D-08 within 128 cycles.
 Requested convergence on MAX density matrix=1.00D-06.
 Requested convergence on             energy=1.00D-06.
 No special actions if energy rises.
 SCF Done:  E(RHF) =  -153.061402904     A.U. after    9 cycles
            NFock=  9  Conv=0.21D-08     -V/T= 1.9993
 Variable Step   Value    
 -------- ---- -----------
    13       5    5.291233
 ---------------------------------------------------------------------------------------------------
                            Z-MATRIX (ANGSTROMS AND DEGREES)
   CD    Cent   Atom    N1       Length/X        N2       Alpha/Y        N3        Beta/Z          J
 ---------------------------------------------------------------------------------------------------
      1      1  O 
      2      2  H        1   0.970000(     1)
      3      3  H        1   0.970000(     2)      2  109.471(     9)
      4      4  O        1   4.600000(     3)      2  125.265(    10)      3  180.000(    16)      0
      5      5  H        4   0.970000(     4)      1  125.265(    11)      2    0.000(    17)      0
      6      6  H        4   0.970000(     5)      1  125.265(    12)      2  180.000(    18)      0
      7         X        1   2.800000(     6)      2  125.265(    13)      3  180.000(    19)      0
      8      7  H        7   0.364980(     7)      1   90.000(    14)      2    0.000(    20)      0
      9      8  H        7   0.364980(     8)      4   90.000(    15)      5  180.000(    21)      0
 ---------------------------------------------------------------------------------------------------
                         Z-Matrix orientation:                         
 ---------------------------------------------------------------------
 Center     Atomic      Atomic             Coordinates (Angstroms)
 Number     Number       Type             X           Y           Z
 ---------------------------------------------------------------------
      1          8           0        0.000000    0.000000    0.000000
      2          1           0        0.000000    0.000000    0.970000
      3          1           0        0.914525    0.000000   -0.323333
      4          8           0       -3.755879   -0.000000   -2.655818
      5          1           0       -4.670405   -0.000000   -2.332489
      6          1           0       -3.755879   -0.000000   -3.625818
      7         -1           0       -2.286187   -0.000000   -1.616585
      8          1           0       -2.496909   -0.000000   -1.318581
      9          1           0       -2.075465   -0.000000   -1.914590
 ---------------------------------------------------------------------
                    Distance matrix (angstroms):
                    1          2          3          4          5
     1  O    0.000000
     2  H    0.970000   0.000000
     3  H    0.970000   1.584003   0.000000
     4  O    4.600000   5.220459   5.220456   0.000000
     5  H    5.220459   5.720063   5.935330   0.970000   0.000000
     6  H    5.220459   5.935333   5.720060   0.970000   1.584001
     7  X    2.800000   3.452112   3.452109   1.800000   2.489380
     8  H    2.823687   3.387057   3.553646   1.836630   2.398352
     9  H    2.823687   3.553648   3.387055   1.836630   2.628374
                    6          7          8          9
     6  H    0.000000
     7  X    2.489380   0.000000
     8  H    2.628374   0.364980   0.000000
     9  H    2.398352   0.364980   0.729960   0.000000
 Stoichiometry    H6O2
 Framework group  CS[SG(H6O2)]
 Deg. of freedom    13
 Full point group                 CS      NOp   2
 Largest Abelian subgroup         CS      NOp   2
 Largest concise Abelian subgroup C1      NOp   1
                         Standard orientation:                         
 ---------------------------------------------------------------------
 Center     Atomic      Atomic             Coordinates (Angstroms)
 Number     Number       Type             X           Y           Z
 ---------------------------------------------------------------------
      1          8           0        0.000000   -2.345455    0.000000
      2          1           0        0.792001   -2.905486    0.000000
      3          1           0       -0.792003   -2.905483    0.000000
      4          8           0        0.000000    2.254545   -0.000000
      5          1           0        0.792001    2.814577   -0.000000
      6          1           0       -0.792001    2.814577   -0.000000
      7          1           0        0.364980    0.454545   -0.000000
      8          1           0       -0.364980    0.454545   -0.000000
 ---------------------------------------------------------------------
 Rotational constants (GHZ):         180.6730268           2.4935004           2.4595557
 Standard basis: 6-31G (6D, 7F)
 There are    26 symmetry adapted cartesian basis functions of A'  symmetry.
 There are     4 symmetry adapted cartesian basis functions of A"  symmetry.
 There are    26 symmetry adapted basis functions of A'  symmetry.
 There are     4 symmetry adapted basis functions of A"  symmetry.
    30 basis functions,    68 primitive gaussians,    30 cartesian basis functions
    11 alpha electrons       11 beta electrons
       nuclear repulsion energy        38.8827314056 Hartrees.
 NAtoms=    8 NActive=    8 NUniq=    8 SFac= 1.00D+00 NAtFMM=   60 NAOKFM=F Big=F
 Integral buffers will be    131072 words long.
 Raffenetti 1 integral format.
 Two-electron integral symmetry is turned on.
 One-electron integrals computed using PRISM.
 NBasis=    30 RedAO= T EigKep=  7.07D-02  NBF=    26     4
 NBsUse=    30 1.00D-06 EigRej= -1.00D+00 NBFU=    26     4
 Initial guess from the checkpoint file:  "2H2_H2_dummy_input_1.chk"
 B after Tr=    -0.000000   -0.000000    0.000000
         Rot=    1.000000   -0.000000   -0.000000   -0.000000 Ang=   0.00 deg.
 Initial guess orbital symmetries:
       Occupied  (A') (A') (A') (A') (A') (A') (A') (A') (A") (A")
                 (A')
       Virtual   (A') (A') (A') (A') (A') (A') (A') (A') (A') (A')
                 (A") (A") (A') (A') (A') (A') (A') (A') (A')
 ExpMin= 1.61D-01 ExpMax= 5.48D+03 ExpMxC= 8.25D+02 IAcc=2 IRadAn=         4 AccDes= 0.00D+00
 Harris functional with IExCor=  205 and IRadAn=       4 diagonalized for initial guess.
 HarFok:  IExCor=  205 AccDes= 0.00D+00 IRadAn=         4 IDoV= 1 UseB2=F ITyADJ=14
 ICtDFT=  3500011 ScaDFX=  1.000000  1.000000  1.000000  1.000000
 FoFCou: FMM=F IPFlag=           0 FMFlag=      100000 FMFlg1=           0
         NFxFlg=           0 DoJE=T BraDBF=F KetDBF=T FulRan=T
         wScrn=  0.000000 ICntrl=       500 IOpCl=  0 I1Cent=   200000004 NGrid=           0
         NMat0=    1 NMatS0=      1 NMatT0=    0 NMatD0=    1 NMtDS0=    0 NMtDT0=    0
 Petite list used in FoFCou.
 Keep R1 ints in memory in symmetry-blocked form, NReq=2532779.
 Requested convergence on RMS density matrix=1.00D-08 within 128 cycles.
 Requested convergence on MAX density matrix=1.00D-06.
 Requested convergence on             energy=1.00D-06.
 No special actions if energy rises.
 SCF Done:  E(RHF) =  -153.051241387     A.U. after    9 cycles
            NFock=  9  Conv=0.29D-08     -V/T= 1.9990
 Variable Step   Value    
 -------- ---- -----------
    13       6    5.480206
 ---------------------------------------------------------------------------------------------------
                            Z-MATRIX (ANGSTROMS AND DEGREES)
   CD    Cent   Atom    N1       Length/X        N2       Alpha/Y        N3        Beta/Z          J
 ---------------------------------------------------------------------------------------------------
      1      1  O 
      2      2  H        1   0.970000(     1)
      3      3  H        1   0.970000(     2)      2  109.471(     9)
      4      4  O        1   4.600000(     3)      2  125.265(    10)      3  180.000(    16)      0
      5      5  H        4   0.970000(     4)      1  125.265(    11)      2    0.000(    17)      0
      6      6  H        4   0.970000(     5)      1  125.265(    12)      2  180.000(    18)      0
      7         X        1   2.900000(     6)      2  125.265(    13)      3  180.000(    19)      0
      8      7  H        7   0.364980(     7)      1   90.000(    14)      2    0.000(    20)      0
      9      8  H        7   0.364980(     8)      4   90.000(    15)      5  180.000(    21)      0
 ---------------------------------------------------------------------------------------------------
                         Z-Matrix orientation:                         
 ---------------------------------------------------------------------
 Center     Atomic      Atomic             Coordinates (Angstroms)
 Number     Number       Type             X           Y           Z
 ---------------------------------------------------------------------
      1          8           0        0.000000    0.000000    0.000000
      2          1           0        0.000000    0.000000    0.970000
      3          1           0        0.914525    0.000000   -0.323333
      4          8           0       -3.755879   -0.000000   -2.655818
      5          1           0       -4.670405   -0.000000   -2.332489
      6          1           0       -3.755879   -0.000000   -3.625818
      7         -1           0       -2.367837   -0.000000   -1.674320
      8          1           0       -2.578559   -0.000000   -1.376316
      9          1           0       -2.157115   -0.000000   -1.972325
 ---------------------------------------------------------------------
                    Distance matrix (angstroms):
                    1          2          3          4          5
     1  O    0.000000
     2  H    0.970000   0.000000
     3  H    0.970000   1.584003   0.000000
     4  O    4.600000   5.220459   5.220456   0.000000
     5  H    5.220459   5.720063   5.935330   0.970000   0.000000
     6  H    5.220459   5.935333   5.720060   0.970000   1.584001
     7  X    2.900000   3.549518   3.549516   1.700000   2.394787
     8  H    2.922877   3.486282   3.648343   1.738738   2.300019
     9  H    2.922877   3.648345   3.486279   1.738738   2.538965
                    6          7          8          9
     6  H    0.000000
     7  X    2.394787   0.000000
     8  H    2.538965   0.364980   0.000000
     9  H    2.300019   0.364980   0.729960   0.000000
 Stoichiometry    H6O2
 Framework group  CS[SG(H6O2)]
 Deg. of freedom    13
 Full point group                 CS      NOp   2
 Largest Abelian subgroup         CS      NOp   2
 Largest concise Abelian subgroup C1      NOp   1
                         Standard orientation:                         
 ---------------------------------------------------------------------
 Center     Atomic      Atomic             Coordinates (Angstroms)
 Number     Number       Type             X           Y           Z
 ---------------------------------------------------------------------
      1          8           0        0.000000   -2.354546    0.000000
      2          1           0        0.792001   -2.914577    0.000000
      3          1           0       -0.792003   -2.914574    0.000000
      4          8           0        0.000000    2.245454   -0.000000
      5          1           0        0.792001    2.805486   -0.000000
      6          1           0       -0.792001    2.805486   -0.000000
      7          1           0        0.364980    0.545454   -0.000000
      8          1           0       -0.364980    0.545454   -0.000000
 ---------------------------------------------------------------------
 Rotational constants (GHZ):         180.6730268           2.4909199           2.4570449
 Standard basis: 6-31G (6D, 7F)
 There are    26 symmetry adapted cartesian basis functions of A'  symmetry.
 There are     4 symmetry adapted cartesian basis functions of A"  symmetry.
 There are    26 symmetry adapted basis functions of A'  symmetry.
 There are     4 symmetry adapted basis functions of A"  symmetry.
    30 basis functions,    68 primitive gaussians,    30 cartesian basis functions
    11 alpha electrons       11 beta electrons
       nuclear repulsion energy        39.0569425306 Hartrees.
 NAtoms=    8 NActive=    8 NUniq=    8 SFac= 1.00D+00 NAtFMM=   60 NAOKFM=F Big=F
 Integral buffers will be    131072 words long.
 Raffenetti 1 integral format.
 Two-electron integral symmetry is turned on.
 One-electron integrals computed using PRISM.
 NBasis=    30 RedAO= T EigKep=  7.07D-02  NBF=    26     4
 NBsUse=    30 1.00D-06 EigRej= -1.00D+00 NBFU=    26     4
 Initial guess from the checkpoint file:  "2H2_H2_dummy_input_1.chk"
 B after Tr=     0.000000    0.000000   -0.000000
         Rot=    1.000000   -0.000000   -0.000000   -0.000000 Ang=   0.00 deg.
 Initial guess orbital symmetries:
       Occupied  (A') (A') (A') (A') (A') (A') (A') (A') (A") (A")
                 (A')
       Virtual   (A') (A') (A') (A') (A') (A') (A') (A') (A') (A')
                 (A") (A") (A') (A') (A') (A') (A') (A') (A')
 ExpMin= 1.61D-01 ExpMax= 5.48D+03 ExpMxC= 8.25D+02 IAcc=2 IRadAn=         4 AccDes= 0.00D+00
 Harris functional with IExCor=  205 and IRadAn=       4 diagonalized for initial guess.
 HarFok:  IExCor=  205 AccDes= 0.00D+00 IRadAn=         4 IDoV= 1 UseB2=F ITyADJ=14
 ICtDFT=  3500011 ScaDFX=  1.000000  1.000000  1.000000  1.000000
 FoFCou: FMM=F IPFlag=           0 FMFlag=      100000 FMFlg1=           0
         NFxFlg=           0 DoJE=T BraDBF=F KetDBF=T FulRan=T
         wScrn=  0.000000 ICntrl=       500 IOpCl=  0 I1Cent=   200000004 NGrid=           0
         NMat0=    1 NMatS0=      1 NMatT0=    0 NMatD0=    1 NMtDS0=    0 NMtDT0=    0
 Petite list used in FoFCou.
 Keep R1 ints in memory in symmetry-blocked form, NReq=2532881.
 Requested convergence on RMS density matrix=1.00D-08 within 128 cycles.
 Requested convergence on MAX density matrix=1.00D-06.
 Requested convergence on             energy=1.00D-06.
 No special actions if energy rises.
 SCF Done:  E(RHF) =  -153.036989615     A.U. after    9 cycles
            NFock=  9  Conv=0.41D-08     -V/T= 1.9985
 Variable Step   Value    
 -------- ---- -----------
    13       7    5.669178
 ---------------------------------------------------------------------------------------------------
                            Z-MATRIX (ANGSTROMS AND DEGREES)
   CD    Cent   Atom    N1       Length/X        N2       Alpha/Y        N3        Beta/Z          J
 ---------------------------------------------------------------------------------------------------
      1      1  O 
      2      2  H        1   0.970000(     1)
      3      3  H        1   0.970000(     2)      2  109.471(     9)
      4      4  O        1   4.600000(     3)      2  125.265(    10)      3  180.000(    16)      0
      5      5  H        4   0.970000(     4)      1  125.265(    11)      2    0.000(    17)      0
      6      6  H        4   0.970000(     5)      1  125.265(    12)      2  180.000(    18)      0
      7         X        1   3.000000(     6)      2  125.265(    13)      3  180.000(    19)      0
      8      7  H        7   0.364980(     7)      1   90.000(    14)      2    0.000(    20)      0
      9      8  H        7   0.364980(     8)      4   90.000(    15)      5  180.000(    21)      0
 ---------------------------------------------------------------------------------------------------
                         Z-Matrix orientation:                         
 ---------------------------------------------------------------------
 Center     Atomic      Atomic             Coordinates (Angstroms)
 Number     Number       Type             X           Y           Z
 ---------------------------------------------------------------------
      1          8           0        0.000000    0.000000    0.000000
      2          1           0        0.000000    0.000000    0.970000
      3          1           0        0.914525    0.000000   -0.323333
      4          8           0       -3.755879   -0.000000   -2.655818
      5          1           0       -4.670405   -0.000000   -2.332489
      6          1           0       -3.755879   -0.000000   -3.625818
      7         -1           0       -2.449486   -0.000000   -1.732056
      8          1           0       -2.660208   -0.000000   -1.434051
      9          1           0       -2.238765   -0.000000   -2.030060
 ---------------------------------------------------------------------
                    Distance matrix (angstroms):
                    1          2          3          4          5
     1  O    0.000000
     2  H    0.970000   0.000000
     3  H    0.970000   1.584003   0.000000
     4  O    4.600000   5.220459   5.220456   0.000000
     5  H    5.220459   5.720063   5.935330   0.970000   0.000000
     6  H    5.220459   5.935333   5.720060   0.970000   1.584001
     7  X    3.000000   3.647066   3.647063   1.600000   2.300652
     8  H    3.022120   3.585550   3.743315   1.641100   2.201836
     9  H    3.022120   3.743318   3.585547   1.641100   2.450375
                    6          7          8          9
     6  H    0.000000
     7  X    2.300652   0.000000
     8  H    2.450375   0.364980   0.000000
     9  H    2.201836   0.364980   0.729960   0.000000
 Stoichiometry    H6O2
 Framework group  CS[SG(H6O2)]
 Deg. of freedom    13
 Full point group                 CS      NOp   2
 Largest Abelian subgroup         CS      NOp   2
 Largest concise Abelian subgroup C1      NOp   1
                         Standard orientation:                         
 ---------------------------------------------------------------------
 Center     Atomic      Atomic             Coordinates (Angstroms)
 Number     Number       Type             X           Y           Z
 ---------------------------------------------------------------------
      1          8           0        0.000000   -2.363637    0.000000
      2          1           0        0.792001   -2.923668   -0.000000
      3          1           0       -0.792003   -2.923665    0.000000
      4          8           0        0.000000    2.236363   -0.000000
      5          1           0        0.792001    2.796395   -0.000000
      6          1           0       -0.792001    2.796395    0.000000
      7          1           0        0.364980    0.636363   -0.000000
      8          1           0       -0.364980    0.636363    0.000000
 ---------------------------------------------------------------------
 Rotational constants (GHZ):         180.6730268           2.4878770           2.4540841
 Standard basis: 6-31G (6D, 7F)
 There are    26 symmetry adapted cartesian basis functions of A'  symmetry.
 There are     4 symmetry adapted cartesian basis functions of A"  symmetry.
 There are    26 symmetry adapted basis functions of A'  symmetry.
 There are     4 symmetry adapted basis functions of A"  symmetry.
    30 basis functions,    68 primitive gaussians,    30 cartesian basis functions
    11 alpha electrons       11 beta electrons
       nuclear repulsion energy        39.2713553013 Hartrees.
 NAtoms=    8 NActive=    8 NUniq=    8 SFac= 1.00D+00 NAtFMM=   60 NAOKFM=F Big=F
 Integral buffers will be    131072 words long.
 Raffenetti 1 integral format.
 Two-electron integral symmetry is turned on.
 One-electron integrals computed using PRISM.
 NBasis=    30 RedAO= T EigKep=  7.07D-02  NBF=    26     4
 NBsUse=    30 1.00D-06 EigRej= -1.00D+00 NBFU=    26     4
 Initial guess from the checkpoint file:  "2H2_H2_dummy_input_1.chk"
 B after Tr=    -0.000000    0.000000   -0.000000
         Rot=    1.000000   -0.000000   -0.000000   -0.000000 Ang=   0.00 deg.
 Initial guess orbital symmetries:
       Occupied  (A') (A') (A') (A') (A') (A') (A') (A') (A") (A")
                 (A')
       Virtual   (A') (A') (A') (A') (A') (A') (A') (A') (A') (A')
                 (A") (A") (A') (A') (A') (A') (A') (A') (A')
 ExpMin= 1.61D-01 ExpMax= 5.48D+03 ExpMxC= 8.25D+02 IAcc=2 IRadAn=         4 AccDes= 0.00D+00
 Harris functional with IExCor=  205 and IRadAn=       4 diagonalized for initial guess.
 HarFok:  IExCor=  205 AccDes= 0.00D+00 IRadAn=         4 IDoV= 1 UseB2=F ITyADJ=14
 ICtDFT=  3500011 ScaDFX=  1.000000  1.000000  1.000000  1.000000
 FoFCou: FMM=F IPFlag=           0 FMFlag=      100000 FMFlg1=           0
         NFxFlg=           0 DoJE=T BraDBF=F KetDBF=T FulRan=T
         wScrn=  0.000000 ICntrl=       500 IOpCl=  0 I1Cent=   200000004 NGrid=           0
         NMat0=    1 NMatS0=      1 NMatT0=    0 NMatD0=    1 NMtDS0=    0 NMtDT0=    0
 Petite list used in FoFCou.
 Keep R1 ints in memory in symmetry-blocked form, NReq=2532929.
 Requested convergence on RMS density matrix=1.00D-08 within 128 cycles.
 Requested convergence on MAX density matrix=1.00D-06.
 Requested convergence on             energy=1.00D-06.
 No special actions if energy rises.
 SCF Done:  E(RHF) =  -153.017382594     A.U. after    9 cycles
            NFock=  9  Conv=0.58D-08     -V/T= 1.9980
 Variable Step   Value    
 -------- ---- -----------
    13       8    5.858151
 ---------------------------------------------------------------------------------------------------
                            Z-MATRIX (ANGSTROMS AND DEGREES)
   CD    Cent   Atom    N1       Length/X        N2       Alpha/Y        N3        Beta/Z          J
 ---------------------------------------------------------------------------------------------------
      1      1  O 
      2      2  H        1   0.970000(     1)
      3      3  H        1   0.970000(     2)      2  109.471(     9)
      4      4  O        1   4.600000(     3)      2  125.265(    10)      3  180.000(    16)      0
      5      5  H        4   0.970000(     4)      1  125.265(    11)      2    0.000(    17)      0
      6      6  H        4   0.970000(     5)      1  125.265(    12)      2  180.000(    18)      0
      7         X        1   3.100000(     6)      2  125.265(    13)      3  180.000(    19)      0
      8      7  H        7   0.364980(     7)      1   90.000(    14)      2    0.000(    20)      0
      9      8  H        7   0.364980(     8)      4   90.000(    15)      5  180.000(    21)      0
 ---------------------------------------------------------------------------------------------------
                         Z-Matrix orientation:                         
 ---------------------------------------------------------------------
 Center     Atomic      Atomic             Coordinates (Angstroms)
 Number     Number       Type             X           Y           Z
 ---------------------------------------------------------------------
      1          8           0        0.000000    0.000000    0.000000
      2          1           0        0.000000    0.000000    0.970000
      3          1           0        0.914525    0.000000   -0.323333
      4          8           0       -3.755879   -0.000000   -2.655818
      5          1           0       -4.670405   -0.000000   -2.332489
      6          1           0       -3.755879   -0.000000   -3.625818
      7         -1           0       -2.531136   -0.000000   -1.789791
      8          1           0       -2.741858   -0.000000   -1.491786
      9          1           0       -2.320414   -0.000000   -2.087795
 ---------------------------------------------------------------------
                    Distance matrix (angstroms):
                    1          2          3          4          5
     1  O    0.000000
     2  H    0.970000   0.000000
     3  H    0.970000   1.584003   0.000000
     4  O    4.600000   5.220459   5.220456   0.000000
     5  H    5.220459   5.720063   5.935330   0.970000   0.000000
     6  H    5.220459   5.935333   5.720060   0.970000   1.584001
     7  X    3.100000   3.744742   3.744740   1.500000   2.207033
     8  H    3.121412   3.684858   3.838543   1.543765   2.103824
     9  H    3.121412   3.838546   3.684855   1.543765   2.362696
                    6          7          8          9
     6  H    0.000000
     7  X    2.207033   0.000000
     8  H    2.362696   0.364980   0.000000
     9  H    2.103824   0.364980   0.729960   0.000000
 Stoichiometry    H6O2
 Framework group  CS[SG(H6O2)]
 Deg. of freedom    13
 Full point group                 CS      NOp   2
 Largest Abelian subgroup         CS      NOp   2
 Largest concise Abelian subgroup C1      NOp   1
                         Standard orientation:                         
 ---------------------------------------------------------------------
 Center     Atomic      Atomic             Coordinates (Angstroms)
 Number     Number       Type             X           Y           Z
 ---------------------------------------------------------------------
      1          8           0        0.000000   -2.372727    0.000000
      2          1           0        0.792001   -2.932759    0.000000
      3          1           0       -0.792003   -2.932756    0.000000
      4          8           0        0.000000    2.227273   -0.000000
      5          1           0        0.792001    2.787304   -0.000000
      6          1           0       -0.792001    2.787304   -0.000000
      7          1           0        0.364980    0.727273   -0.000000
      8          1           0       -0.364980    0.727273   -0.000000
 ---------------------------------------------------------------------
 Rotational constants (GHZ):         180.6730268           2.4843752           2.4506768
 Standard basis: 6-31G (6D, 7F)
 There are    26 symmetry adapted cartesian basis functions of A'  symmetry.
 There are     4 symmetry adapted cartesian basis functions of A"  symmetry.
 There are    26 symmetry adapted basis functions of A'  symmetry.
 There are     4 symmetry adapted basis functions of A"  symmetry.
    30 basis functions,    68 primitive gaussians,    30 cartesian basis functions
    11 alpha electrons       11 beta electrons
       nuclear repulsion energy        39.5309822762 Hartrees.
 NAtoms=    8 NActive=    8 NUniq=    8 SFac= 1.00D+00 NAtFMM=   60 NAOKFM=F Big=F
 Integral buffers will be    131072 words long.
 Raffenetti 1 integral format.
 Two-electron integral symmetry is turned on.
 One-electron integrals computed using PRISM.
 NBasis=    30 RedAO= T EigKep=  7.07D-02  NBF=    26     4
 NBsUse=    30 1.00D-06 EigRej= -1.00D+00 NBFU=    26     4
 Initial guess from the checkpoint file:  "2H2_H2_dummy_input_1.chk"
 B after Tr=     0.000000   -0.000000    0.000000
         Rot=    1.000000    0.000000   -0.000000   -0.000000 Ang=   0.00 deg.
 Initial guess orbital symmetries:
       Occupied  (A') (A') (A') (A') (A') (A') (A') (A') (A") (A")
                 (A')
       Virtual   (A') (A') (A') (A') (A') (A') (A') (A') (A') (A')
                 (A") (A") (A') (A') (A') (A') (A') (A') (A')
 ExpMin= 1.61D-01 ExpMax= 5.48D+03 ExpMxC= 8.25D+02 IAcc=2 IRadAn=         4 AccDes= 0.00D+00
 Harris functional with IExCor=  205 and IRadAn=       4 diagonalized for initial guess.
 HarFok:  IExCor=  205 AccDes= 0.00D+00 IRadAn=         4 IDoV= 1 UseB2=F ITyADJ=14
 ICtDFT=  3500011 ScaDFX=  1.000000  1.000000  1.000000  1.000000
 FoFCou: FMM=F IPFlag=           0 FMFlag=      100000 FMFlg1=           0
         NFxFlg=           0 DoJE=T BraDBF=F KetDBF=T FulRan=T
         wScrn=  0.000000 ICntrl=       500 IOpCl=  0 I1Cent=   200000004 NGrid=           0
         NMat0=    1 NMatS0=      1 NMatT0=    0 NMatD0=    1 NMtDS0=    0 NMtDT0=    0
 Petite list used in FoFCou.
 Keep R1 ints in memory in symmetry-blocked form, NReq=2532929.
 Requested convergence on RMS density matrix=1.00D-08 within 128 cycles.
 Requested convergence on MAX density matrix=1.00D-06.
 Requested convergence on             energy=1.00D-06.
 No special actions if energy rises.
 SCF Done:  E(RHF) =  -152.990802174     A.U. after    9 cycles
            NFock=  9  Conv=0.81D-08     -V/T= 1.9972
 Variable Step   Value    
 -------- ---- -----------
    13       9    6.047124
 ---------------------------------------------------------------------------------------------------
                            Z-MATRIX (ANGSTROMS AND DEGREES)
   CD    Cent   Atom    N1       Length/X        N2       Alpha/Y        N3        Beta/Z          J
 ---------------------------------------------------------------------------------------------------
      1      1  O 
      2      2  H        1   0.970000(     1)
      3      3  H        1   0.970000(     2)      2  109.471(     9)
      4      4  O        1   4.600000(     3)      2  125.265(    10)      3  180.000(    16)      0
      5      5  H        4   0.970000(     4)      1  125.265(    11)      2    0.000(    17)      0
      6      6  H        4   0.970000(     5)      1  125.265(    12)      2  180.000(    18)      0
      7         X        1   3.200000(     6)      2  125.265(    13)      3  180.000(    19)      0
      8      7  H        7   0.364980(     7)      1   90.000(    14)      2    0.000(    20)      0
      9      8  H        7   0.364980(     8)      4   90.000(    15)      5  180.000(    21)      0
 ---------------------------------------------------------------------------------------------------
                         Z-Matrix orientation:                         
 ---------------------------------------------------------------------
 Center     Atomic      Atomic             Coordinates (Angstroms)
 Number     Number       Type             X           Y           Z
 ---------------------------------------------------------------------
      1          8           0        0.000000    0.000000    0.000000
      2          1           0        0.000000    0.000000    0.970000
      3          1           0        0.914525    0.000000   -0.323333
      4          8           0       -3.755879   -0.000000   -2.655818
      5          1           0       -4.670405   -0.000000   -2.332489
      6          1           0       -3.755879   -0.000000   -3.625818
      7         -1           0       -2.612786   -0.000000   -1.847526
      8          1           0       -2.823507   -0.000000   -1.549521
      9          1           0       -2.402064   -0.000000   -2.145530
 ---------------------------------------------------------------------
                    Distance matrix (angstroms):
                    1          2          3          4          5
     1  O    0.000000
     2  H    0.970000   0.000000
     3  H    0.970000   1.584003   0.000000
     4  O    4.600000   5.220459   5.220456   0.000000
     5  H    5.220459   5.720063   5.935330   0.970000   0.000000
     6  H    5.220459   5.935333   5.720060   0.970000   1.584001
     7  X    3.200000   3.842538   3.842536   1.400000   2.113998
     8  H    3.220747   3.784202   3.934008   1.446793   2.006008
     9  H    3.220747   3.934011   3.784199   1.446793   2.276033
                    6          7          8          9
     6  H    0.000000
     7  X    2.113998   0.000000
     8  H    2.276033   0.364980   0.000000
     9  H    2.006008   0.364980   0.729960   0.000000
 Stoichiometry    H6O2
 Framework group  CS[SG(H6O2)]
 Deg. of freedom    13
 Full point group                 CS      NOp   2
 Largest Abelian subgroup         CS      NOp   2
 Largest concise Abelian subgroup C1      NOp   1
                         Standard orientation:                         
 ---------------------------------------------------------------------
 Center     Atomic      Atomic             Coordinates (Angstroms)
 Number     Number       Type             X           Y           Z
 ---------------------------------------------------------------------
      1          8           0        0.000000   -2.381818   -0.000000
      2          1           0        0.792001   -2.941850   -0.000000
      3          1           0       -0.792003   -2.941847   -0.000000
      4          8           0        0.000000    2.218182    0.000000
      5          1           0        0.792001    2.778213    0.000000
      6          1           0       -0.792001    2.778213    0.000000
      7          1           0        0.364980    0.818182    0.000000
      8          1           0       -0.364980    0.818182    0.000000
 ---------------------------------------------------------------------
 Rotational constants (GHZ):         180.6730268           2.4804184           2.4468265
 Standard basis: 6-31G (6D, 7F)
 There are    26 symmetry adapted cartesian basis functions of A'  symmetry.
 There are     4 symmetry adapted cartesian basis functions of A"  symmetry.
 There are    26 symmetry adapted basis functions of A'  symmetry.
 There are     4 symmetry adapted basis functions of A"  symmetry.
    30 basis functions,    68 primitive gaussians,    30 cartesian basis functions
    11 alpha electrons       11 beta electrons
       nuclear repulsion energy        39.8422808285 Hartrees.
 NAtoms=    8 NActive=    8 NUniq=    8 SFac= 1.00D+00 NAtFMM=   60 NAOKFM=F Big=F
 Integral buffers will be    131072 words long.
 Raffenetti 1 integral format.
 Two-electron integral symmetry is turned on.
 One-electron integrals computed using PRISM.
 NBasis=    30 RedAO= T EigKep=  6.81D-02  NBF=    26     4
 NBsUse=    30 1.00D-06 EigRej= -1.00D+00 NBFU=    26     4
 Initial guess from the checkpoint file:  "2H2_H2_dummy_input_1.chk"
 B after Tr=    -0.000000    0.000000    0.000000
         Rot=    1.000000    0.000000   -0.000000   -0.000000 Ang=   0.00 deg.
 Initial guess orbital symmetries:
       Occupied  (A') (A') (A') (A') (A') (A') (A') (A') (A") (A")
                 (A')
       Virtual   (A') (A') (A') (A') (A') (A') (A') (A') (A") (A')
                 (A') (A") (A') (A') (A') (A') (A') (A') (A')
 ExpMin= 1.61D-01 ExpMax= 5.48D+03 ExpMxC= 8.25D+02 IAcc=2 IRadAn=         4 AccDes= 0.00D+00
 Harris functional with IExCor=  205 and IRadAn=       4 diagonalized for initial guess.
 HarFok:  IExCor=  205 AccDes= 0.00D+00 IRadAn=         4 IDoV= 1 UseB2=F ITyADJ=14
 ICtDFT=  3500011 ScaDFX=  1.000000  1.000000  1.000000  1.000000
 FoFCou: FMM=F IPFlag=           0 FMFlag=      100000 FMFlg1=           0
         NFxFlg=           0 DoJE=T BraDBF=F KetDBF=T FulRan=T
         wScrn=  0.000000 ICntrl=       500 IOpCl=  0 I1Cent=   200000004 NGrid=           0
         NMat0=    1 NMatS0=      1 NMatT0=    0 NMatD0=    1 NMtDS0=    0 NMtDT0=    0
 Petite list used in FoFCou.
 Keep R1 ints in memory in symmetry-blocked form, NReq=2532923.
 Requested convergence on RMS density matrix=1.00D-08 within 128 cycles.
 Requested convergence on MAX density matrix=1.00D-06.
 Requested convergence on             energy=1.00D-06.
 No special actions if energy rises.
 SCF Done:  E(RHF) =  -152.955298871     A.U. after   10 cycles
            NFock= 10  Conv=0.27D-08     -V/T= 1.9963
 Variable Step   Value    
 -------- ---- -----------
    13      10    6.236096
 ---------------------------------------------------------------------------------------------------
                            Z-MATRIX (ANGSTROMS AND DEGREES)
   CD    Cent   Atom    N1       Length/X        N2       Alpha/Y        N3        Beta/Z          J
 ---------------------------------------------------------------------------------------------------
      1      1  O 
      2      2  H        1   0.970000(     1)
      3      3  H        1   0.970000(     2)      2  109.471(     9)
      4      4  O        1   4.600000(     3)      2  125.265(    10)      3  180.000(    16)      0
      5      5  H        4   0.970000(     4)      1  125.265(    11)      2    0.000(    17)      0
      6      6  H        4   0.970000(     5)      1  125.265(    12)      2  180.000(    18)      0
      7         X        1   3.300000(     6)      2  125.265(    13)      3  180.000(    19)      0
      8      7  H        7   0.364980(     7)      1   90.000(    14)      2    0.000(    20)      0
      9      8  H        7   0.364980(     8)      4   90.000(    15)      5  180.000(    21)      0
 ---------------------------------------------------------------------------------------------------
                         Z-Matrix orientation:                         
 ---------------------------------------------------------------------
 Center     Atomic      Atomic             Coordinates (Angstroms)
 Number     Number       Type             X           Y           Z
 ---------------------------------------------------------------------
      1          8           0        0.000000    0.000000    0.000000
      2          1           0        0.000000    0.000000    0.970000
      3          1           0        0.914525    0.000000   -0.323333
      4          8           0       -3.755879   -0.000000   -2.655818
      5          1           0       -4.670405   -0.000000   -2.332489
      6          1           0       -3.755879   -0.000000   -3.625818
      7         -1           0       -2.694435   -0.000000   -1.905261
      8          1           0       -2.905157   -0.000000   -1.607257
      9          1           0       -2.483713   -0.000000   -2.203266
 ---------------------------------------------------------------------
                    Distance matrix (angstroms):
                    1          2          3          4          5
     1  O    0.000000
     2  H    0.970000   0.000000
     3  H    0.970000   1.584003   0.000000
     4  O    4.600000   5.220459   5.220456   0.000000
     5  H    5.220459   5.720063   5.935330   0.970000   0.000000
     6  H    5.220459   5.935333   5.720060   0.970000   1.584001
     7  X    3.300000   3.940445   3.940442   1.300000   2.021628
     8  H    3.320122   3.883579   4.029693   1.350263   1.908419
     9  H    3.320122   4.029695   3.883576   1.350263   2.190507
                    6          7          8          9
     6  H    0.000000
     7  X    2.021628   0.000000
     8  H    2.190507   0.364980   0.000000
     9  H    1.908419   0.364980   0.729960   0.000000
 Stoichiometry    H6O2
 Framework group  CS[SG(H6O2)]
 Deg. of freedom    13
 Full point group                 CS      NOp   2
 Largest Abelian subgroup         CS      NOp   2
 Largest concise Abelian subgroup C1      NOp   1
                         Standard orientation:                         
 ---------------------------------------------------------------------
 Center     Atomic      Atomic             Coordinates (Angstroms)
 Number     Number       Type             X           Y           Z
 ---------------------------------------------------------------------
      1          8           0        0.000000   -2.390909   -0.000000
      2          1           0        0.792001   -2.950941   -0.000000
      3          1           0       -0.792003   -2.950937   -0.000000
      4          8           0        0.000000    2.209091    0.000000
      5          1           0        0.792001    2.769122    0.000000
      6          1           0       -0.792001    2.769122    0.000000
      7          1           0        0.364980    0.909091    0.000000
      8          1           0       -0.364980    0.909091    0.000000
 ---------------------------------------------------------------------
 Rotational constants (GHZ):         180.6730268           2.4760110           2.4425376
 Standard basis: 6-31G (6D, 7F)
 There are    26 symmetry adapted cartesian basis functions of A'  symmetry.
 There are     4 symmetry adapted cartesian basis functions of A"  symmetry.
 There are    26 symmetry adapted basis functions of A'  symmetry.
 There are     4 symmetry adapted basis functions of A"  symmetry.
    30 basis functions,    68 primitive gaussians,    30 cartesian basis functions
    11 alpha electrons       11 beta electrons
       nuclear repulsion energy        40.2135546248 Hartrees.
 NAtoms=    8 NActive=    8 NUniq=    8 SFac= 1.00D+00 NAtFMM=   60 NAOKFM=F Big=F
 Integral buffers will be    131072 words long.
 Raffenetti 1 integral format.
 Two-electron integral symmetry is turned on.
 One-electron integrals computed using PRISM.
 NBasis=    30 RedAO= T EigKep=  6.49D-02  NBF=    26     4
 NBsUse=    30 1.00D-06 EigRej= -1.00D+00 NBFU=    26     4
 Initial guess from the checkpoint file:  "2H2_H2_dummy_input_1.chk"
 B after Tr=     0.000000    0.000000    0.000000
         Rot=    1.000000    0.000000   -0.000000   -0.000000 Ang=   0.00 deg.
 Initial guess orbital symmetries:
       Occupied  (A') (A') (A') (A') (A') (A') (A') (A') (A") (A")
                 (A')
       Virtual   (A') (A') (A') (A') (A') (A') (A') (A") (A') (A')
                 (A') (A") (A') (A') (A') (A') (A') (A') (A')
 ExpMin= 1.61D-01 ExpMax= 5.48D+03 ExpMxC= 8.25D+02 IAcc=2 IRadAn=         4 AccDes= 0.00D+00
 Harris functional with IExCor=  205 and IRadAn=       4 diagonalized for initial guess.
 HarFok:  IExCor=  205 AccDes= 0.00D+00 IRadAn=         4 IDoV= 1 UseB2=F ITyADJ=14
 ICtDFT=  3500011 ScaDFX=  1.000000  1.000000  1.000000  1.000000
 FoFCou: FMM=F IPFlag=           0 FMFlag=      100000 FMFlg1=           0
         NFxFlg=           0 DoJE=T BraDBF=F KetDBF=T FulRan=T
         wScrn=  0.000000 ICntrl=       500 IOpCl=  0 I1Cent=   200000004 NGrid=           0
         NMat0=    1 NMatS0=      1 NMatT0=    0 NMatD0=    1 NMtDS0=    0 NMtDT0=    0
 Petite list used in FoFCou.
 Keep R1 ints in memory in symmetry-blocked form, NReq=2532923.
 Requested convergence on RMS density matrix=1.00D-08 within 128 cycles.
 Requested convergence on MAX density matrix=1.00D-06.
 Requested convergence on             energy=1.00D-06.
 No special actions if energy rises.
 SCF Done:  E(RHF) =  -152.908769477     A.U. after   10 cycles
            NFock= 10  Conv=0.61D-08     -V/T= 1.9952
 Scan completed.
 
 Summary of the potential surface scan:
   N      B6          SCF    
 ----  ---------  -----------
    1     2.3000   -153.07637
    2     2.4000   -153.07555
    3     2.5000   -153.07299
    4     2.6000   -153.06842
    5     2.7000   -153.06140
    6     2.8000   -153.05124
    7     2.9000   -153.03699
    8     3.0000   -153.01738
    9     3.1000   -152.99080
   10     3.2000   -152.95530
   11     3.3000   -152.90877
 ----  ---------  -----------
  
 1\1\GINC-NSCC-N11\Scan\RHF\6-31G\H6O2\JKIM22\20-Jul-2020\1\\# scan hf/
 6-31g\\2H2_H2_dummy_input_1\\0,1\O\H,1,B1\H,1,B2,2,A1\O,1,B3,2,A2,3,D1
 ,0\H,4,B4,1,A3,2,D2,0\H,4,B5,1,A4,2,D3,0\X,1,B6,2,A5,3,D4,0\H,7,B7,1,A
 6,2,D5,0\H,7,B8,4,A6,5,D6,0\\B1=0.97\B2=0.97\A1=109.47122063\B3=4.6\A2
 =125.2645\D1=180.\B4=0.97\A3=125.2645\D2=0.\B5=0.97\A4=125.2645\D3=180
 .\B6=2.3,s,10,0.1\A5=125.2645\D4=180.\B7=0.36498\A6=90.\D5=0.\B8=0.364
 98\D6=180.\\Version=ES64L-G16RevA.03\HF=-153.0763734,-153.0755479,-153
 .0729857,-153.0684234,-153.0614029,-153.0512414,-153.0369896,-153.0173
 826,-152.9908022,-152.9552989,-152.9087695\RMSD=2.001e-09,2.806e-09,5.
 847e-09,1.595e-09,2.093e-09,2.929e-09,4.130e-09,5.761e-09,8.113e-09,2.
 710e-09,6.150e-09\PG=CS [SG(H6O2)]\\@


 POCKETA-POCKETA
 BARON VON RICHTOFEN
 SLAUGHTERED THE ALLIES WITH
 HARDLY A CARE.
 KILLED EIGHTY-ONE WITH HIS
 BLOOD-COLORED TRIPLANE, THEN
 UN-AEROBATICALLY
 PLUNGED FROM THE AIR.
   -- TONY HOFFMAN
 Job cpu time:       0 days  0 hours  1 minutes  5.6 seconds.
 Elapsed time:       0 days  0 hours  0 minutes  7.2 seconds.
 File lengths (MBytes):  RWF=      6 Int=      0 D2E=      0 Chk=      2 Scr=      1
 Normal termination of Gaussian 16 at Mon Jul 20 15:31:34 2020.
