 Entering Gaussian System, Link 0=g16
 Input=2H2_H2_dummy_input_2.com
 Output=2H2_H2_dummy_input_2.log
 Initial command:
 /export/local/g16/l1.exe "/var/tmp/Gau-28383.inp" -scrdir="/var/tmp/"
 Entering Link 1 = /export/local/g16/l1.exe PID=     28385.
  
 Copyright (c) 1988,1990,1992,1993,1995,1998,2003,2009,2016,
            Gaussian, Inc.  All Rights Reserved.
  
 This is part of the Gaussian(R) 16 program.  It is based on
 the Gaussian(R) 09 system (copyright 2009, Gaussian, Inc.),
 the Gaussian(R) 03 system (copyright 2003, Gaussian, Inc.),
 the Gaussian(R) 98 system (copyright 1998, Gaussian, Inc.),
 the Gaussian(R) 94 system (copyright 1995, Gaussian, Inc.),
 the Gaussian 92(TM) system (copyright 1992, Gaussian, Inc.),
 the Gaussian 90(TM) system (copyright 1990, Gaussian, Inc.),
 the Gaussian 88(TM) system (copyright 1988, Gaussian, Inc.),
 the Gaussian 86(TM) system (copyright 1986, Carnegie Mellon
 University), and the Gaussian 82(TM) system (copyright 1983,
 Carnegie Mellon University). Gaussian is a federally registered
 trademark of Gaussian, Inc.
  
 This software contains proprietary and confidential information,
 including trade secrets, belonging to Gaussian, Inc.
  
 This software is provided under written license and may be
 used, copied, transmitted, or stored only in accord with that
 written license.
  
 The following legend is applicable only to US Government
 contracts under FAR:
  
                    RESTRICTED RIGHTS LEGEND
  
 Use, reproduction and disclosure by the US Government is
 subject to restrictions as set forth in subparagraphs (a)
 and (c) of the Commercial Computer Software - Restricted
 Rights clause in FAR 52.227-19.
  
 Gaussian, Inc.
 340 Quinnipiac St., Bldg. 40, Wallingford CT 06492
  
  
 ---------------------------------------------------------------
 Warning -- This program may not be used in any manner that
 competes with the business of Gaussian, Inc. or will provide
 assistance to any competitor of Gaussian, Inc.  The licensee
 of this program is prohibited from giving any competitor of
 Gaussian, Inc. access to this program.  By using this program,
 the user acknowledges that Gaussian, Inc. is engaged in the
 business of creating and licensing software in the field of
 computational chemistry and represents and warrants to the
 licensee that it is not a competitor of Gaussian, Inc. and that
 it will not use this program in any manner prohibited above.
 ---------------------------------------------------------------
  

 Cite this work as:
 Gaussian 16, Revision A.03,
 M. J. Frisch, G. W. Trucks, H. B. Schlegel, G. E. Scuseria, 
 M. A. Robb, J. R. Cheeseman, G. Scalmani, V. Barone, 
 G. A. Petersson, H. Nakatsuji, X. Li, M. Caricato, A. V. Marenich, 
 J. Bloino, B. G. Janesko, R. Gomperts, B. Mennucci, H. P. Hratchian, 
 J. V. Ortiz, A. F. Izmaylov, J. L. Sonnenberg, D. Williams-Young, 
 F. Ding, F. Lipparini, F. Egidi, J. Goings, B. Peng, A. Petrone, 
 T. Henderson, D. Ranasinghe, V. G. Zakrzewski, J. Gao, N. Rega, 
 G. Zheng, W. Liang, M. Hada, M. Ehara, K. Toyota, R. Fukuda, 
 J. Hasegawa, M. Ishida, T. Nakajima, Y. Honda, O. Kitao, H. Nakai, 
 T. Vreven, K. Throssell, J. A. Montgomery, Jr., J. E. Peralta, 
 F. Ogliaro, M. J. Bearpark, J. J. Heyd, E. N. Brothers, K. N. Kudin, 
 V. N. Staroverov, T. A. Keith, R. Kobayashi, J. Normand, 
 K. Raghavachari, A. P. Rendell, J. C. Burant, S. S. Iyengar, 
 J. Tomasi, M. Cossi, J. M. Millam, M. Klene, C. Adamo, R. Cammi, 
 J. W. Ochterski, R. L. Martin, K. Morokuma, O. Farkas, 
 J. B. Foresman, and D. J. Fox, Gaussian, Inc., Wallingford CT, 2016.
 
 ******************************************
 Gaussian 16:  ES64L-G16RevA.03 25-Dec-2016
                25-Jun-2020 
 ******************************************
 %chk=2H2_H2_dummy_input_2.chk
 %nprocshared=12
 Will use up to   12 processors via shared memory.
 ---------------
 # scan hf/6-31g
 ---------------
 1/38=1,60=1,172=1/1,8;
 2/12=2,17=6,18=5,29=3,40=1/2;
 3/5=1,6=6,11=9,25=1,30=1/1,2,3;
 4//1;
 5/5=2,38=5/2;
 6/7=2,8=2,9=2,10=2,18=1,28=1/1;
 1/60=1/8(1);
 99/9=1/99;
 2/29=3/2;
 3/5=1,6=6,11=9,25=1,30=1/1,2,3;
 4/5=5,16=3,69=1/1;
 5/5=2,38=5/2;
 1/60=1/8(-4);
 99/9=1/99;
 --------------------
 2H2_H2_dummy_input_2
 --------------------
 Symbolic Z-matrix:
 Charge =  0 Multiplicity = 1
 O
 H                    1    B1
 H                    1    B2       2    A1
 O                    1    B3       2    A2       3    D1       0
 H                    4    B4       1    A3       2    D2       0
 H                    4    B5       1    A4       2    D3       0
 X                    1    B6       2    A5       3    D4       0
 H                    7    B7       1    A6       2    D5       0
 H                    7    B8       4    A6       5    D6       0
       Variables:
  B1                    0.97                     
  B2                    0.97                     
  A1                  109.471                    
  B3                    4.6                      
  A2                  125.2645                   
  D1                  180.                       
  B4                    0.97                     
  A3                  125.2645                   
  D2                    0.                       
  B5                    0.97                     
  A4                  125.2645                   
  D3                  180.                       
  B6                    1.49998Scan 9     0.03889
  A5                  125.2645                   
  D4                  180.                       
  B7                    0.36498                  
  A6                   90.     Scan 9    10.     
  D5                    0.                       
  B8                    0.36498                  
  D6                  180.                       
 
     1 tetrahedral angles replaced.
    1 tetrahedral angles replaced.
 Scan the potential surface.
 Variable   Value     No. Steps Step-Size
 -------- ----------- --------- ---------
    13       1.499980       9      0.0389
    17      90.000000       9     10.0000
 A total of    100 points will be computed.
 ---------------------------------------------------------------------------------------------------
                            Z-MATRIX (ANGSTROMS AND DEGREES)
   CD    Cent   Atom    N1       Length/X        N2       Alpha/Y        N3        Beta/Z          J
 ---------------------------------------------------------------------------------------------------
      1      1  O 
      2      2  H        1   0.970000(     1)
      3      3  H        1   0.970000(     2)      2  109.471(     9)
      4      4  O        1   4.600000(     3)      2  125.265(    10)      3  180.000(    16)      0
      5      5  H        4   0.970000(     4)      1  125.265(    11)      2    0.000(    17)      0
      6      6  H        4   0.970000(     5)      1  125.265(    12)      2  180.000(    18)      0
      7         X        1   1.499980(     6)      2  125.265(    13)      3  180.000(    19)      0
      8      7  H        7   0.364980(     7)      1   90.000(    14)      2    0.000(    20)      0
      9      8  H        7   0.364980(     8)      4   90.000(    15)      5  180.000(    21)      0
 ---------------------------------------------------------------------------------------------------
                         Z-Matrix orientation:                         
 ---------------------------------------------------------------------
 Center     Atomic      Atomic             Coordinates (Angstroms)
 Number     Number       Type             X           Y           Z
 ---------------------------------------------------------------------
      1          8           0        0.000000    0.000000    0.000000
      2          1           0        0.000000    0.000000    0.970000
      3          1           0        0.914525    0.000000   -0.323333
      4          8           0       -3.755879   -0.000000   -2.655818
      5          1           0       -4.670405   -0.000000   -2.332489
      6          1           0       -3.755879   -0.000000   -3.625818
      7         -1           0       -1.224727   -0.000000   -0.866016
      8          1           0       -1.435449   -0.000000   -0.568012
      9          1           0       -1.014005   -0.000000   -1.164021
 ---------------------------------------------------------------------
                    Distance matrix (angstroms):
                    1          2          3          4          5
     1  O    0.000000
     2  H    0.970000   0.000000
     3  H    0.970000   1.584003   0.000000
     4  O    4.600000   5.220459   5.220456   0.000000
     5  H    5.220459   5.720063   5.935330   0.970000   0.000000
     6  H    5.220459   5.935333   5.720060   0.970000   1.584001
     7  X    1.499980   2.207014   2.207012   3.100020   3.744762
     8  H    1.543746   2.103804   2.362677   3.121431   3.684877
     9  H    1.543746   2.362679   2.103802   3.121431   3.838565
                    6          7          8          9
     6  H    0.000000
     7  X    3.744762   0.000000
     8  H    3.838565   0.364980   0.000000
     9  H    3.684877   0.364980   0.729960   0.000000
 Stoichiometry    H6O2
 Framework group  CS[SG(H6O2)]
 Deg. of freedom    13
 Full point group                 CS      NOp   2
 Largest Abelian subgroup         CS      NOp   2
 Largest concise Abelian subgroup C1      NOp   1
                         Standard orientation:                         
 ---------------------------------------------------------------------
 Center     Atomic      Atomic             Coordinates (Angstroms)
 Number     Number       Type             X           Y           Z
 ---------------------------------------------------------------------
      1          8           0        0.000000   -2.227271    0.000000
      2          1           0        0.792001   -2.787302    0.000000
      3          1           0       -0.792003   -2.787299    0.000000
      4          8           0        0.000000    2.372729   -0.000000
      5          1           0        0.792001    2.932760   -0.000000
      6          1           0       -0.792001    2.932760   -0.000000
      7          1           0        0.364980   -0.727291    0.000000
      8          1           0       -0.364980   -0.727291    0.000000
 ---------------------------------------------------------------------
 Rotational constants (GHZ):         180.6730268           2.4843745           2.4506761
 Standard basis: 6-31G (6D, 7F)
 There are    26 symmetry adapted cartesian basis functions of A'  symmetry.
 There are     4 symmetry adapted cartesian basis functions of A"  symmetry.
 There are    26 symmetry adapted basis functions of A'  symmetry.
 There are     4 symmetry adapted basis functions of A"  symmetry.
    30 basis functions,    68 primitive gaussians,    30 cartesian basis functions
    11 alpha electrons       11 beta electrons
       nuclear repulsion energy        39.5310393941 Hartrees.
 NAtoms=    8 NActive=    8 NUniq=    8 SFac= 1.00D+00 NAtFMM=   60 NAOKFM=F Big=F
 Integral buffers will be    131072 words long.
 Raffenetti 1 integral format.
 Two-electron integral symmetry is turned on.
 One-electron integrals computed using PRISM.
 NBasis=    30 RedAO= T EigKep=  7.07D-02  NBF=    26     4
 NBsUse=    30 1.00D-06 EigRej= -1.00D+00 NBFU=    26     4
 ExpMin= 1.61D-01 ExpMax= 5.48D+03 ExpMxC= 8.25D+02 IAcc=3 IRadAn=         5 AccDes= 0.00D+00
 Harris functional with IExCor=  205 and IRadAn=       5 diagonalized for initial guess.
 HarFok:  IExCor=  205 AccDes= 0.00D+00 IRadAn=         5 IDoV= 1 UseB2=F ITyADJ=14
 ICtDFT=  3500011 ScaDFX=  1.000000  1.000000  1.000000  1.000000
 FoFCou: FMM=F IPFlag=           0 FMFlag=      100000 FMFlg1=           0
         NFxFlg=           0 DoJE=T BraDBF=F KetDBF=T FulRan=T
         wScrn=  0.000000 ICntrl=       500 IOpCl=  0 I1Cent=   200000004 NGrid=           0
         NMat0=    1 NMatS0=      1 NMatT0=    0 NMatD0=    1 NMtDS0=    0 NMtDT0=    0
 Petite list used in FoFCou.
 Initial guess orbital symmetries:
       Occupied  (A') (A') (A') (A') (A') (A') (A') (A') (A") (A")
                 (A')
       Virtual   (A') (A') (A') (A') (A') (A') (A") (A") (A') (A')
                 (A') (A') (A') (A') (A') (A') (A') (A') (A')
 The electronic state of the initial guess is 1-A'.
 Keep R1 ints in memory in symmetry-blocked form, NReq=2532929.
 Requested convergence on RMS density matrix=1.00D-08 within 128 cycles.
 Requested convergence on MAX density matrix=1.00D-06.
 Requested convergence on             energy=1.00D-06.
 No special actions if energy rises.
 SCF Done:  E(RHF) =  -152.990795991     A.U. after   11 cycles
            NFock= 11  Conv=0.88D-08     -V/T= 1.9972

 **********************************************************************

            Population analysis using the SCF density.

 **********************************************************************

 Orbital symmetries:
       Occupied  (A') (A') (A') (A') (A') (A') (A') (A') (A") (A")
                 (A')
       Virtual   (A') (A') (A') (A') (A') (A') (A') (A') (A") (A')
                 (A') (A") (A') (A') (A') (A') (A') (A') (A')
 The electronic state is 1-A'.
 Alpha  occ. eigenvalues --  -20.55048 -20.54254  -1.35875  -1.32814  -0.71903
 Alpha  occ. eigenvalues --   -0.69495  -0.67731  -0.53023  -0.50765  -0.48128
 Alpha  occ. eigenvalues --   -0.36083
 Alpha virt. eigenvalues --    0.21172   0.21935   0.29319   0.30928   0.31250
 Alpha virt. eigenvalues --    0.81136   1.09633   1.15433   1.15617   1.16044
 Alpha virt. eigenvalues --    1.16645   1.18324   1.27636   1.38584   1.38983
 Alpha virt. eigenvalues --    1.43914   1.54309   1.68416   1.69535
          Condensed to atoms (all electrons):
               1          2          3          4          5          6
     1  O    8.821441   0.212597   0.212598  -0.000002  -0.000001  -0.000001
     2  H    0.212597   0.368747  -0.010416  -0.000001   0.000000   0.000000
     3  H    0.212598  -0.010416   0.368747  -0.000001   0.000000   0.000000
     4  O   -0.000002  -0.000001  -0.000001   8.283499   0.255109   0.255109
     5  H   -0.000001   0.000000   0.000000   0.255109   0.375385  -0.027704
     6  H   -0.000001   0.000000   0.000000   0.255109  -0.027704   0.375385
     7  H   -0.237090   0.021040   0.014188  -0.000098   0.000135   0.000080
     8  H   -0.237090   0.014188   0.021040  -0.000098   0.000080   0.000135
               7          8
     1  O   -0.237090  -0.237090
     2  H    0.021040   0.014188
     3  H    0.014188   0.021040
     4  O   -0.000098  -0.000098
     5  H    0.000135   0.000080
     6  H    0.000080   0.000135
     7  H    0.709430   0.500170
     8  H    0.500170   0.709431
 Mulliken charges:
               1
     1  O   -0.772451
     2  H    0.393844
     3  H    0.393844
     4  O   -0.793518
     5  H    0.396996
     6  H    0.396996
     7  H   -0.007855
     8  H   -0.007856
 Sum of Mulliken charges =  -0.00000
 Mulliken charges with hydrogens summed into heavy atoms:
               1
     1  O   -0.000474
     4  O    0.000474
 Electronic spatial extent (au):  <R**2>=            446.2278
 Charge=             -0.0000 electrons
 Dipole moment (field-independent basis, Debye):
    X=             -0.0000    Y=             -0.3596    Z=              0.0000  Tot=              0.3596
 Quadrupole moment (field-independent basis, Debye-Ang):
   XX=             -9.8657   YY=              8.9274   ZZ=            -16.6329
   XY=              0.0000   XZ=              0.0000   YZ=             -0.0000
 Traceless Quadrupole moment (field-independent basis, Debye-Ang):
   XX=             -4.0086   YY=             14.7845   ZZ=            -10.7759
   XY=              0.0000   XZ=              0.0000   YZ=             -0.0000
 Octapole moment (field-independent basis, Debye-Ang**2):
  XXX=             -0.0000  YYY=             11.0427  ZZZ=             -0.0000  XYY=             -0.0000
  XXY=              0.7426  XXZ=             -0.0000  XZZ=             -0.0000  YZZ=              0.4424
  YYZ=             -0.0000  XYZ=              0.0000
 Hexadecapole moment (field-independent basis, Debye-Ang**3):
 XXXX=            -14.9033 YYYY=           -168.1527 ZZZZ=            -12.6327 XXXY=              0.0000
 XXXZ=             -0.0000 YYYX=             -0.0000 YYYZ=             -0.0000 ZZZX=             -0.0000
 ZZZY=              0.0000 XXYY=            -39.4559 XXZZ=             -5.1621 YYZZ=            -86.4715
 XXYZ=              0.0000 YYXZ=              0.0000 ZZXY=             -0.0000
 N-N= 3.953103939414D+01 E-N=-4.429591347226D+02  KE= 1.534177891467D+02
 Symmetry A'   KE= 1.443235407942D+02
 Symmetry A"   KE= 9.094248352544D+00
 Variable Step   Value    
 -------- ---- -----------
    13       1    2.908043
    17       0    1.570796
 ---------------------------------------------------------------------------------------------------
                            Z-MATRIX (ANGSTROMS AND DEGREES)
   CD    Cent   Atom    N1       Length/X        N2       Alpha/Y        N3        Beta/Z          J
 ---------------------------------------------------------------------------------------------------
      1      1  O 
      2      2  H        1   0.970000(     1)
      3      3  H        1   0.970000(     2)      2  109.471(     9)
      4      4  O        1   4.600000(     3)      2  125.265(    10)      3  180.000(    16)      0
      5      5  H        4   0.970000(     4)      1  125.265(    11)      2    0.000(    17)      0
      6      6  H        4   0.970000(     5)      1  125.265(    12)      2  180.000(    18)      0
      7         X        1   1.538870(     6)      2  125.265(    13)      3  180.000(    19)      0
      8      7  H        7   0.364980(     7)      1   90.000(    14)      2    0.000(    20)      0
      9      8  H        7   0.364980(     8)      4   90.000(    15)      5  180.000(    21)      0
 ---------------------------------------------------------------------------------------------------
                         Z-Matrix orientation:                         
 ---------------------------------------------------------------------
 Center     Atomic      Atomic             Coordinates (Angstroms)
 Number     Number       Type             X           Y           Z
 ---------------------------------------------------------------------
      1          8           0        0.000000    0.000000    0.000000
      2          1           0        0.000000    0.000000    0.970000
      3          1           0        0.914525    0.000000   -0.323333
      4          8           0       -3.755879   -0.000000   -2.655818
      5          1           0       -4.670405   -0.000000   -2.332489
      6          1           0       -3.755879   -0.000000   -3.625818
      7         -1           0       -1.256480   -0.000000   -0.888469
      8          1           0       -1.467202   -0.000000   -0.590465
      9          1           0       -1.045759   -0.000000   -1.186474
 ---------------------------------------------------------------------
                    Distance matrix (angstroms):
                    1          2          3          4          5
     1  O    0.000000
     2  H    0.970000   0.000000
     3  H    0.970000   1.584003   0.000000
     4  O    4.600000   5.220459   5.220456   0.000000
     5  H    5.220459   5.720063   5.935330   0.970000   0.000000
     6  H    5.220459   5.935333   5.720060   0.970000   1.584001
     7  X    1.538870   2.243357   2.243355   3.061130   3.706761
     8  H    1.581560   2.141899   2.396661   3.082812   3.646252
     9  H    1.581560   2.396662   2.141897   3.082812   3.801501
                    6          7          8          9
     6  H    0.000000
     7  X    3.706761   0.000000
     8  H    3.801501   0.364980   0.000000
     9  H    3.646252   0.364980   0.729960   0.000000
 Stoichiometry    H6O2
 Framework group  CS[SG(H6O2)]
 Deg. of freedom    13
 Full point group                 CS      NOp   2
 Largest Abelian subgroup         CS      NOp   2
 Largest concise Abelian subgroup C1      NOp   1
                         Standard orientation:                         
 ---------------------------------------------------------------------
 Center     Atomic      Atomic             Coordinates (Angstroms)
 Number     Number       Type             X           Y           Z
 ---------------------------------------------------------------------
      1          8           0        0.000000   -2.230807    0.000000
      2          1           0        0.792001   -2.790838    0.000000
      3          1           0       -0.792003   -2.790835    0.000000
      4          8           0        0.000000    2.369193   -0.000000
      5          1           0        0.792001    2.929225   -0.000000
      6          1           0       -0.792001    2.929225   -0.000000
      7          1           0        0.364980   -0.691937    0.000000
      8          1           0       -0.364980   -0.691937    0.000000
 ---------------------------------------------------------------------
 Rotational constants (GHZ):         180.6730268           2.4857906           2.4520541
 Standard basis: 6-31G (6D, 7F)
 There are    26 symmetry adapted cartesian basis functions of A'  symmetry.
 There are     4 symmetry adapted cartesian basis functions of A"  symmetry.
 There are    26 symmetry adapted basis functions of A'  symmetry.
 There are     4 symmetry adapted basis functions of A"  symmetry.
    30 basis functions,    68 primitive gaussians,    30 cartesian basis functions
    11 alpha electrons       11 beta electrons
       nuclear repulsion energy        39.4243178177 Hartrees.
 NAtoms=    8 NActive=    8 NUniq=    8 SFac= 1.00D+00 NAtFMM=   60 NAOKFM=F Big=F
 Integral buffers will be    131072 words long.
 Raffenetti 1 integral format.
 Two-electron integral symmetry is turned on.
 One-electron integrals computed using PRISM.
 NBasis=    30 RedAO= T EigKep=  7.07D-02  NBF=    26     4
 NBsUse=    30 1.00D-06 EigRej= -1.00D+00 NBFU=    26     4
 Initial guess from the checkpoint file:  "2H2_H2_dummy_input_2.chk"
 B after Tr=    -0.000000   -0.000000   -0.000000
         Rot=    1.000000   -0.000000   -0.000000   -0.000000 Ang=   0.00 deg.
 Initial guess orbital symmetries:
       Occupied  (A') (A') (A') (A') (A') (A') (A') (A') (A") (A")
                 (A')
       Virtual   (A') (A') (A') (A') (A') (A') (A') (A') (A") (A')
                 (A') (A") (A') (A') (A') (A') (A') (A') (A')
 ExpMin= 1.61D-01 ExpMax= 5.48D+03 ExpMxC= 8.25D+02 IAcc=2 IRadAn=         4 AccDes= 0.00D+00
 Harris functional with IExCor=  205 and IRadAn=       4 diagonalized for initial guess.
 HarFok:  IExCor=  205 AccDes= 0.00D+00 IRadAn=         4 IDoV= 1 UseB2=F ITyADJ=14
 ICtDFT=  3500011 ScaDFX=  1.000000  1.000000  1.000000  1.000000
 FoFCou: FMM=F IPFlag=           0 FMFlag=      100000 FMFlg1=           0
         NFxFlg=           0 DoJE=T BraDBF=F KetDBF=T FulRan=T
         wScrn=  0.000000 ICntrl=       500 IOpCl=  0 I1Cent=   200000004 NGrid=           0
         NMat0=    1 NMatS0=      1 NMatT0=    0 NMatD0=    1 NMtDS0=    0 NMtDT0=    0
 Petite list used in FoFCou.
 Keep R1 ints in memory in symmetry-blocked form, NReq=2532929.
 Requested convergence on RMS density matrix=1.00D-08 within 128 cycles.
 Requested convergence on MAX density matrix=1.00D-06.
 Requested convergence on             energy=1.00D-06.
 No special actions if energy rises.
 SCF Done:  E(RHF) =  -153.002080504     A.U. after    9 cycles
            NFock=  9  Conv=0.35D-08     -V/T= 1.9975
 Variable Step   Value    
 -------- ---- -----------
    13       2    2.981534
    17       0    1.570796
 ---------------------------------------------------------------------------------------------------
                            Z-MATRIX (ANGSTROMS AND DEGREES)
   CD    Cent   Atom    N1       Length/X        N2       Alpha/Y        N3        Beta/Z          J
 ---------------------------------------------------------------------------------------------------
      1      1  O 
      2      2  H        1   0.970000(     1)
      3      3  H        1   0.970000(     2)      2  109.471(     9)
      4      4  O        1   4.600000(     3)      2  125.265(    10)      3  180.000(    16)      0
      5      5  H        4   0.970000(     4)      1  125.265(    11)      2    0.000(    17)      0
      6      6  H        4   0.970000(     5)      1  125.265(    12)      2  180.000(    18)      0
      7         X        1   1.577760(     6)      2  125.265(    13)      3  180.000(    19)      0
      8      7  H        7   0.364980(     7)      1   90.000(    14)      2    0.000(    20)      0
      9      8  H        7   0.364980(     8)      4   90.000(    15)      5  180.000(    21)      0
 ---------------------------------------------------------------------------------------------------
                         Z-Matrix orientation:                         
 ---------------------------------------------------------------------
 Center     Atomic      Atomic             Coordinates (Angstroms)
 Number     Number       Type             X           Y           Z
 ---------------------------------------------------------------------
      1          8           0        0.000000    0.000000    0.000000
      2          1           0        0.000000    0.000000    0.970000
      3          1           0        0.914525    0.000000   -0.323333
      4          8           0       -3.755879   -0.000000   -2.655818
      5          1           0       -4.670405   -0.000000   -2.332489
      6          1           0       -3.755879   -0.000000   -3.625818
      7         -1           0       -1.288234   -0.000000   -0.910923
      8          1           0       -1.498956   -0.000000   -0.612918
      9          1           0       -1.077512   -0.000000   -1.208927
 ---------------------------------------------------------------------
                    Distance matrix (angstroms):
                    1          2          3          4          5
     1  O    0.000000
     2  H    0.970000   0.000000
     3  H    0.970000   1.584003   0.000000
     4  O    4.600000   5.220459   5.220456   0.000000
     5  H    5.220459   5.720063   5.935330   0.970000   0.000000
     6  H    5.220459   5.935333   5.720060   0.970000   1.584001
     7  X    1.577760   2.279784   2.279782   3.022240   3.668778
     8  H    1.619425   2.180023   2.430792   3.044199   3.607633
     9  H    1.619425   2.430793   2.180020   3.044199   3.764475
                    6          7          8          9
     6  H    0.000000
     7  X    3.668778   0.000000
     8  H    3.764475   0.364980   0.000000
     9  H    3.607633   0.364980   0.729960   0.000000
 Stoichiometry    H6O2
 Framework group  CS[SG(H6O2)]
 Deg. of freedom    13
 Full point group                 CS      NOp   2
 Largest Abelian subgroup         CS      NOp   2
 Largest concise Abelian subgroup C1      NOp   1
                         Standard orientation:                         
 ---------------------------------------------------------------------
 Center     Atomic      Atomic             Coordinates (Angstroms)
 Number     Number       Type             X           Y           Z
 ---------------------------------------------------------------------
      1          8           0        0.000000   -2.234342    0.000000
      2          1           0        0.792001   -2.794373    0.000000
      3          1           0       -0.792003   -2.794370    0.000000
      4          8           0        0.000000    2.365658   -0.000000
      5          1           0        0.792001    2.925689   -0.000000
      6          1           0       -0.792001    2.925689   -0.000000
      7          1           0        0.364980   -0.656582    0.000000
      8          1           0       -0.364980   -0.656582    0.000000
 ---------------------------------------------------------------------
 Rotational constants (GHZ):         180.6730268           2.4871378           2.4533648
 Standard basis: 6-31G (6D, 7F)
 There are    26 symmetry adapted cartesian basis functions of A'  symmetry.
 There are     4 symmetry adapted cartesian basis functions of A"  symmetry.
 There are    26 symmetry adapted basis functions of A'  symmetry.
 There are     4 symmetry adapted basis functions of A"  symmetry.
    30 basis functions,    68 primitive gaussians,    30 cartesian basis functions
    11 alpha electrons       11 beta electrons
       nuclear repulsion energy        39.3249844474 Hartrees.
 NAtoms=    8 NActive=    8 NUniq=    8 SFac= 1.00D+00 NAtFMM=   60 NAOKFM=F Big=F
 Integral buffers will be    131072 words long.
 Raffenetti 1 integral format.
 Two-electron integral symmetry is turned on.
 One-electron integrals computed using PRISM.
 NBasis=    30 RedAO= T EigKep=  7.07D-02  NBF=    26     4
 NBsUse=    30 1.00D-06 EigRej= -1.00D+00 NBFU=    26     4
 Initial guess from the checkpoint file:  "2H2_H2_dummy_input_2.chk"
 B after Tr=    -0.000000    0.000000   -0.000000
         Rot=    1.000000    0.000000   -0.000000   -0.000000 Ang=   0.00 deg.
 Initial guess orbital symmetries:
       Occupied  (A') (A') (A') (A') (A') (A') (A') (A') (A") (A")
                 (A')
       Virtual   (A') (A') (A') (A') (A') (A') (A') (A') (A") (A')
                 (A') (A") (A') (A') (A') (A') (A') (A') (A')
 ExpMin= 1.61D-01 ExpMax= 5.48D+03 ExpMxC= 8.25D+02 IAcc=2 IRadAn=         4 AccDes= 0.00D+00
 Harris functional with IExCor=  205 and IRadAn=       4 diagonalized for initial guess.
 HarFok:  IExCor=  205 AccDes= 0.00D+00 IRadAn=         4 IDoV= 1 UseB2=F ITyADJ=14
 ICtDFT=  3500011 ScaDFX=  1.000000  1.000000  1.000000  1.000000
 FoFCou: FMM=F IPFlag=           0 FMFlag=      100000 FMFlg1=           0
         NFxFlg=           0 DoJE=T BraDBF=F KetDBF=T FulRan=T
         wScrn=  0.000000 ICntrl=       500 IOpCl=  0 I1Cent=   200000004 NGrid=           0
         NMat0=    1 NMatS0=      1 NMatT0=    0 NMatD0=    1 NMtDS0=    0 NMtDT0=    0
 Petite list used in FoFCou.
 Keep R1 ints in memory in symmetry-blocked form, NReq=2532929.
 Requested convergence on RMS density matrix=1.00D-08 within 128 cycles.
 Requested convergence on MAX density matrix=1.00D-06.
 Requested convergence on             energy=1.00D-06.
 No special actions if energy rises.
 SCF Done:  E(RHF) =  -153.012138096     A.U. after    9 cycles
            NFock=  9  Conv=0.30D-08     -V/T= 1.9978
 Variable Step   Value    
 -------- ---- -----------
    13       3    3.055026
    17       0    1.570796
 ---------------------------------------------------------------------------------------------------
                            Z-MATRIX (ANGSTROMS AND DEGREES)
   CD    Cent   Atom    N1       Length/X        N2       Alpha/Y        N3        Beta/Z          J
 ---------------------------------------------------------------------------------------------------
      1      1  O 
      2      2  H        1   0.970000(     1)
      3      3  H        1   0.970000(     2)      2  109.471(     9)
      4      4  O        1   4.600000(     3)      2  125.265(    10)      3  180.000(    16)      0
      5      5  H        4   0.970000(     4)      1  125.265(    11)      2    0.000(    17)      0
      6      6  H        4   0.970000(     5)      1  125.265(    12)      2  180.000(    18)      0
      7         X        1   1.616650(     6)      2  125.265(    13)      3  180.000(    19)      0
      8      7  H        7   0.364980(     7)      1   90.000(    14)      2    0.000(    20)      0
      9      8  H        7   0.364980(     8)      4   90.000(    15)      5  180.000(    21)      0
 ---------------------------------------------------------------------------------------------------
                         Z-Matrix orientation:                         
 ---------------------------------------------------------------------
 Center     Atomic      Atomic             Coordinates (Angstroms)
 Number     Number       Type             X           Y           Z
 ---------------------------------------------------------------------
      1          8           0        0.000000    0.000000    0.000000
      2          1           0        0.000000    0.000000    0.970000
      3          1           0        0.914525    0.000000   -0.323333
      4          8           0       -3.755879   -0.000000   -2.655818
      5          1           0       -4.670405   -0.000000   -2.332489
      6          1           0       -3.755879   -0.000000   -3.625818
      7         -1           0       -1.319987   -0.000000   -0.933376
      8          1           0       -1.530709   -0.000000   -0.635371
      9          1           0       -1.109266   -0.000000   -1.231380
 ---------------------------------------------------------------------
                    Distance matrix (angstroms):
                    1          2          3          4          5
     1  O    0.000000
     2  H    0.970000   0.000000
     3  H    0.970000   1.584003   0.000000
     4  O    4.600000   5.220459   5.220456   0.000000
     5  H    5.220459   5.720063   5.935330   0.970000   0.000000
     6  H    5.220459   5.935333   5.720060   0.970000   1.584001
     7  X    1.616650   2.316292   2.316289   2.983350   3.630815
     8  H    1.657338   2.218172   2.465063   3.005593   3.569019
     9  H    1.657338   2.465065   2.218170   3.005593   3.727486
                    6          7          8          9
     6  H    0.000000
     7  X    3.630815   0.000000
     8  H    3.727486   0.364980   0.000000
     9  H    3.569019   0.364980   0.729960   0.000000
 Stoichiometry    H6O2
 Framework group  CS[SG(H6O2)]
 Deg. of freedom    13
 Full point group                 CS      NOp   2
 Largest Abelian subgroup         CS      NOp   2
 Largest concise Abelian subgroup C1      NOp   1
                         Standard orientation:                         
 ---------------------------------------------------------------------
 Center     Atomic      Atomic             Coordinates (Angstroms)
 Number     Number       Type             X           Y           Z
 ---------------------------------------------------------------------
      1          8           0        0.000000   -2.237877   -0.000000
      2          1           0        0.792001   -2.797909   -0.000000
      3          1           0       -0.792003   -2.797906   -0.000000
      4          8           0        0.000000    2.362123    0.000000
      5          1           0        0.792001    2.922154    0.000000
      6          1           0       -0.792001    2.922154    0.000000
      7          1           0        0.364980   -0.621227   -0.000000
      8          1           0       -0.364980   -0.621227   -0.000000
 ---------------------------------------------------------------------
 Rotational constants (GHZ):         180.6730268           2.4884156           2.4546082
 Standard basis: 6-31G (6D, 7F)
 There are    26 symmetry adapted cartesian basis functions of A'  symmetry.
 There are     4 symmetry adapted cartesian basis functions of A"  symmetry.
 There are    26 symmetry adapted basis functions of A'  symmetry.
 There are     4 symmetry adapted basis functions of A"  symmetry.
    30 basis functions,    68 primitive gaussians,    30 cartesian basis functions
    11 alpha electrons       11 beta electrons
       nuclear repulsion energy        39.2326697409 Hartrees.
 NAtoms=    8 NActive=    8 NUniq=    8 SFac= 1.00D+00 NAtFMM=   60 NAOKFM=F Big=F
 Integral buffers will be    131072 words long.
 Raffenetti 1 integral format.
 Two-electron integral symmetry is turned on.
 One-electron integrals computed using PRISM.
 NBasis=    30 RedAO= T EigKep=  7.07D-02  NBF=    26     4
 NBsUse=    30 1.00D-06 EigRej= -1.00D+00 NBFU=    26     4
 Initial guess from the checkpoint file:  "2H2_H2_dummy_input_2.chk"
 B after Tr=     0.000000    0.000000    0.000000
         Rot=    1.000000    0.000000   -0.000000   -0.000000 Ang=   0.00 deg.
 Initial guess orbital symmetries:
       Occupied  (A') (A') (A') (A') (A') (A') (A') (A') (A") (A")
                 (A')
       Virtual   (A') (A') (A') (A') (A') (A') (A') (A') (A') (A')
                 (A") (A") (A') (A') (A') (A') (A') (A') (A')
 ExpMin= 1.61D-01 ExpMax= 5.48D+03 ExpMxC= 8.25D+02 IAcc=2 IRadAn=         4 AccDes= 0.00D+00
 Harris functional with IExCor=  205 and IRadAn=       4 diagonalized for initial guess.
 HarFok:  IExCor=  205 AccDes= 0.00D+00 IRadAn=         4 IDoV= 1 UseB2=F ITyADJ=14
 ICtDFT=  3500011 ScaDFX=  1.000000  1.000000  1.000000  1.000000
 FoFCou: FMM=F IPFlag=           0 FMFlag=      100000 FMFlg1=           0
         NFxFlg=           0 DoJE=T BraDBF=F KetDBF=T FulRan=T
         wScrn=  0.000000 ICntrl=       500 IOpCl=  0 I1Cent=   200000004 NGrid=           0
         NMat0=    1 NMatS0=      1 NMatT0=    0 NMatD0=    1 NMtDS0=    0 NMtDT0=    0
 Petite list used in FoFCou.
 Keep R1 ints in memory in symmetry-blocked form, NReq=2532929.
 Requested convergence on RMS density matrix=1.00D-08 within 128 cycles.
 Requested convergence on MAX density matrix=1.00D-06.
 Requested convergence on             energy=1.00D-06.
 No special actions if energy rises.
 SCF Done:  E(RHF) =  -153.021082882     A.U. after    9 cycles
            NFock=  9  Conv=0.26D-08     -V/T= 1.9981
 Variable Step   Value    
 -------- ---- -----------
    13       4    3.128517
    17       0    1.570796
 ---------------------------------------------------------------------------------------------------
                            Z-MATRIX (ANGSTROMS AND DEGREES)
   CD    Cent   Atom    N1       Length/X        N2       Alpha/Y        N3        Beta/Z          J
 ---------------------------------------------------------------------------------------------------
      1      1  O 
      2      2  H        1   0.970000(     1)
      3      3  H        1   0.970000(     2)      2  109.471(     9)
      4      4  O        1   4.600000(     3)      2  125.265(    10)      3  180.000(    16)      0
      5      5  H        4   0.970000(     4)      1  125.265(    11)      2    0.000(    17)      0
      6      6  H        4   0.970000(     5)      1  125.265(    12)      2  180.000(    18)      0
      7         X        1   1.655540(     6)      2  125.265(    13)      3  180.000(    19)      0
      8      7  H        7   0.364980(     7)      1   90.000(    14)      2    0.000(    20)      0
      9      8  H        7   0.364980(     8)      4   90.000(    15)      5  180.000(    21)      0
 ---------------------------------------------------------------------------------------------------
                         Z-Matrix orientation:                         
 ---------------------------------------------------------------------
 Center     Atomic      Atomic             Coordinates (Angstroms)
 Number     Number       Type             X           Y           Z
 ---------------------------------------------------------------------
      1          8           0        0.000000    0.000000    0.000000
      2          1           0        0.000000    0.000000    0.970000
      3          1           0        0.914525    0.000000   -0.323333
      4          8           0       -3.755879   -0.000000   -2.655818
      5          1           0       -4.670405   -0.000000   -2.332489
      6          1           0       -3.755879   -0.000000   -3.625818
      7         -1           0       -1.351741   -0.000000   -0.955829
      8          1           0       -1.562463   -0.000000   -0.657825
      9          1           0       -1.141019   -0.000000   -1.253834
 ---------------------------------------------------------------------
                    Distance matrix (angstroms):
                    1          2          3          4          5
     1  O    0.000000
     2  H    0.970000   0.000000
     3  H    0.970000   1.584003   0.000000
     4  O    4.600000   5.220459   5.220456   0.000000
     5  H    5.220459   5.720063   5.935330   0.970000   0.000000
     6  H    5.220459   5.935333   5.720060   0.970000   1.584001
     7  X    1.655540   2.352875   2.352873   2.944460   3.592871
     8  H    1.695294   2.256347   2.499470   2.966994   3.530412
     9  H    1.695294   2.499472   2.256345   2.966994   3.690537
                    6          7          8          9
     6  H    0.000000
     7  X    3.592871   0.000000
     8  H    3.690537   0.364980   0.000000
     9  H    3.530412   0.364980   0.729960   0.000000
 Stoichiometry    H6O2
 Framework group  CS[SG(H6O2)]
 Deg. of freedom    13
 Full point group                 CS      NOp   2
 Largest Abelian subgroup         CS      NOp   2
 Largest concise Abelian subgroup C1      NOp   1
                         Standard orientation:                         
 ---------------------------------------------------------------------
 Center     Atomic      Atomic             Coordinates (Angstroms)
 Number     Number       Type             X           Y           Z
 ---------------------------------------------------------------------
      1          8           0        0.000000   -2.241413    0.000000
      2          1           0        0.792001   -2.801444    0.000000
      3          1           0       -0.792003   -2.801441    0.000000
      4          8           0        0.000000    2.358587   -0.000000
      5          1           0        0.792001    2.918618   -0.000000
      6          1           0       -0.792001    2.918618   -0.000000
      7          1           0        0.364980   -0.585873    0.000000
      8          1           0       -0.364980   -0.585873    0.000000
 ---------------------------------------------------------------------
 Rotational constants (GHZ):         180.6730268           2.4896239           2.4557839
 Standard basis: 6-31G (6D, 7F)
 There are    26 symmetry adapted cartesian basis functions of A'  symmetry.
 There are     4 symmetry adapted cartesian basis functions of A"  symmetry.
 There are    26 symmetry adapted basis functions of A'  symmetry.
 There are     4 symmetry adapted basis functions of A"  symmetry.
    30 basis functions,    68 primitive gaussians,    30 cartesian basis functions
    11 alpha electrons       11 beta electrons
       nuclear repulsion energy        39.1470386341 Hartrees.
 NAtoms=    8 NActive=    8 NUniq=    8 SFac= 1.00D+00 NAtFMM=   60 NAOKFM=F Big=F
 Integral buffers will be    131072 words long.
 Raffenetti 1 integral format.
 Two-electron integral symmetry is turned on.
 One-electron integrals computed using PRISM.
 NBasis=    30 RedAO= T EigKep=  7.07D-02  NBF=    26     4
 NBsUse=    30 1.00D-06 EigRej= -1.00D+00 NBFU=    26     4
 Initial guess from the checkpoint file:  "2H2_H2_dummy_input_2.chk"
 B after Tr=     0.000000   -0.000000    0.000000
         Rot=    1.000000    0.000000   -0.000000   -0.000000 Ang=   0.00 deg.
 Initial guess orbital symmetries:
       Occupied  (A') (A') (A') (A') (A') (A') (A') (A') (A") (A")
                 (A')
       Virtual   (A') (A') (A') (A') (A') (A') (A') (A') (A') (A')
                 (A") (A") (A') (A') (A') (A') (A') (A') (A')
 ExpMin= 1.61D-01 ExpMax= 5.48D+03 ExpMxC= 8.25D+02 IAcc=2 IRadAn=         4 AccDes= 0.00D+00
 Harris functional with IExCor=  205 and IRadAn=       4 diagonalized for initial guess.
 HarFok:  IExCor=  205 AccDes= 0.00D+00 IRadAn=         4 IDoV= 1 UseB2=F ITyADJ=14
 ICtDFT=  3500011 ScaDFX=  1.000000  1.000000  1.000000  1.000000
 FoFCou: FMM=F IPFlag=           0 FMFlag=      100000 FMFlg1=           0
         NFxFlg=           0 DoJE=T BraDBF=F KetDBF=T FulRan=T
         wScrn=  0.000000 ICntrl=       500 IOpCl=  0 I1Cent=   200000004 NGrid=           0
         NMat0=    1 NMatS0=      1 NMatT0=    0 NMatD0=    1 NMtDS0=    0 NMtDT0=    0
 Petite list used in FoFCou.
 Keep R1 ints in memory in symmetry-blocked form, NReq=2532929.
 Requested convergence on RMS density matrix=1.00D-08 within 128 cycles.
 Requested convergence on MAX density matrix=1.00D-06.
 Requested convergence on             energy=1.00D-06.
 No special actions if energy rises.
 SCF Done:  E(RHF) =  -153.029021326     A.U. after    9 cycles
            NFock=  9  Conv=0.23D-08     -V/T= 1.9983
 Variable Step   Value    
 -------- ---- -----------
    13       5    3.202009
    17       0    1.570796
 ---------------------------------------------------------------------------------------------------
                            Z-MATRIX (ANGSTROMS AND DEGREES)
   CD    Cent   Atom    N1       Length/X        N2       Alpha/Y        N3        Beta/Z          J
 ---------------------------------------------------------------------------------------------------
      1      1  O 
      2      2  H        1   0.970000(     1)
      3      3  H        1   0.970000(     2)      2  109.471(     9)
      4      4  O        1   4.600000(     3)      2  125.265(    10)      3  180.000(    16)      0
      5      5  H        4   0.970000(     4)      1  125.265(    11)      2    0.000(    17)      0
      6      6  H        4   0.970000(     5)      1  125.265(    12)      2  180.000(    18)      0
      7         X        1   1.694430(     6)      2  125.265(    13)      3  180.000(    19)      0
      8      7  H        7   0.364980(     7)      1   90.000(    14)      2    0.000(    20)      0
      9      8  H        7   0.364980(     8)      4   90.000(    15)      5  180.000(    21)      0
 ---------------------------------------------------------------------------------------------------
                         Z-Matrix orientation:                         
 ---------------------------------------------------------------------
 Center     Atomic      Atomic             Coordinates (Angstroms)
 Number     Number       Type             X           Y           Z
 ---------------------------------------------------------------------
      1          8           0        0.000000    0.000000    0.000000
      2          1           0        0.000000    0.000000    0.970000
      3          1           0        0.914525    0.000000   -0.323333
      4          8           0       -3.755879   -0.000000   -2.655818
      5          1           0       -4.670405   -0.000000   -2.332489
      6          1           0       -3.755879   -0.000000   -3.625818
      7         -1           0       -1.383494   -0.000000   -0.978282
      8          1           0       -1.594216   -0.000000   -0.680278
      9          1           0       -1.172773   -0.000000   -1.276287
 ---------------------------------------------------------------------
                    Distance matrix (angstroms):
                    1          2          3          4          5
     1  O    0.000000
     2  H    0.970000   0.000000
     3  H    0.970000   1.584003   0.000000
     4  O    4.600000   5.220459   5.220456   0.000000
     5  H    5.220459   5.720063   5.935330   0.970000   0.000000
     6  H    5.220459   5.935333   5.720060   0.970000   1.584001
     7  X    1.694430   2.389531   2.389529   2.905570   3.554948
     8  H    1.733293   2.294546   2.534007   2.928404   3.491810
     9  H    1.733293   2.534009   2.294544   2.928404   3.653628
                    6          7          8          9
     6  H    0.000000
     7  X    3.554948   0.000000
     8  H    3.653628   0.364980   0.000000
     9  H    3.491810   0.364980   0.729960   0.000000
 Stoichiometry    H6O2
 Framework group  CS[SG(H6O2)]
 Deg. of freedom    13
 Full point group                 CS      NOp   2
 Largest Abelian subgroup         CS      NOp   2
 Largest concise Abelian subgroup C1      NOp   1
                         Standard orientation:                         
 ---------------------------------------------------------------------
 Center     Atomic      Atomic             Coordinates (Angstroms)
 Number     Number       Type             X           Y           Z
 ---------------------------------------------------------------------
      1          8           0        0.000000   -2.244948    0.000000
      2          1           0        0.792001   -2.804980    0.000000
      3          1           0       -0.792003   -2.804977   -0.000000
      4          8           0        0.000000    2.355052   -0.000000
      5          1           0        0.792001    2.915083    0.000000
      6          1           0       -0.792001    2.915083   -0.000000
      7          1           0        0.364980   -0.550518    0.000000
      8          1           0       -0.364980   -0.550518   -0.000000
 ---------------------------------------------------------------------
 Rotational constants (GHZ):         180.6730268           2.4907625           2.4568918
 Standard basis: 6-31G (6D, 7F)
 There are    26 symmetry adapted cartesian basis functions of A'  symmetry.
 There are     4 symmetry adapted cartesian basis functions of A"  symmetry.
 There are    26 symmetry adapted basis functions of A'  symmetry.
 There are     4 symmetry adapted basis functions of A"  symmetry.
    30 basis functions,    68 primitive gaussians,    30 cartesian basis functions
    11 alpha electrons       11 beta electrons
       nuclear repulsion energy        39.0677875173 Hartrees.
 NAtoms=    8 NActive=    8 NUniq=    8 SFac= 1.00D+00 NAtFMM=   60 NAOKFM=F Big=F
 Integral buffers will be    131072 words long.
 Raffenetti 1 integral format.
 Two-electron integral symmetry is turned on.
 One-electron integrals computed using PRISM.
 NBasis=    30 RedAO= T EigKep=  7.07D-02  NBF=    26     4
 NBsUse=    30 1.00D-06 EigRej= -1.00D+00 NBFU=    26     4
 Initial guess from the checkpoint file:  "2H2_H2_dummy_input_2.chk"
 B after Tr=    -0.000000   -0.000000    0.000000
         Rot=    1.000000   -0.000000   -0.000000   -0.000000 Ang=   0.00 deg.
 Initial guess orbital symmetries:
       Occupied  (A') (A') (A') (A') (A') (A') (A') (A') (A") (A")
                 (A')
       Virtual   (A') (A') (A') (A') (A') (A') (A') (A') (A') (A')
                 (A") (A") (A') (A') (A') (A') (A') (A') (A')
 ExpMin= 1.61D-01 ExpMax= 5.48D+03 ExpMxC= 8.25D+02 IAcc=2 IRadAn=         4 AccDes= 0.00D+00
 Harris functional with IExCor=  205 and IRadAn=       4 diagonalized for initial guess.
 HarFok:  IExCor=  205 AccDes= 0.00D+00 IRadAn=         4 IDoV= 1 UseB2=F ITyADJ=14
 ICtDFT=  3500011 ScaDFX=  1.000000  1.000000  1.000000  1.000000
 FoFCou: FMM=F IPFlag=           0 FMFlag=      100000 FMFlg1=           0
         NFxFlg=           0 DoJE=T BraDBF=F KetDBF=T FulRan=T
         wScrn=  0.000000 ICntrl=       500 IOpCl=  0 I1Cent=   200000004 NGrid=           0
         NMat0=    1 NMatS0=      1 NMatT0=    0 NMatD0=    1 NMtDS0=    0 NMtDT0=    0
 Petite list used in FoFCou.
 Keep R1 ints in memory in symmetry-blocked form, NReq=2532881.
 Requested convergence on RMS density matrix=1.00D-08 within 128 cycles.
 Requested convergence on MAX density matrix=1.00D-06.
 Requested convergence on             energy=1.00D-06.
 No special actions if energy rises.
 SCF Done:  E(RHF) =  -153.036051658     A.U. after    9 cycles
            NFock=  9  Conv=0.20D-08     -V/T= 1.9985
 Variable Step   Value    
 -------- ---- -----------
    13       6    3.275500
    17       0    1.570796
 ---------------------------------------------------------------------------------------------------
                            Z-MATRIX (ANGSTROMS AND DEGREES)
   CD    Cent   Atom    N1       Length/X        N2       Alpha/Y        N3        Beta/Z          J
 ---------------------------------------------------------------------------------------------------
      1      1  O 
      2      2  H        1   0.970000(     1)
      3      3  H        1   0.970000(     2)      2  109.471(     9)
      4      4  O        1   4.600000(     3)      2  125.265(    10)      3  180.000(    16)      0
      5      5  H        4   0.970000(     4)      1  125.265(    11)      2    0.000(    17)      0
      6      6  H        4   0.970000(     5)      1  125.265(    12)      2  180.000(    18)      0
      7         X        1   1.733320(     6)      2  125.265(    13)      3  180.000(    19)      0
      8      7  H        7   0.364980(     7)      1   90.000(    14)      2    0.000(    20)      0
      9      8  H        7   0.364980(     8)      4   90.000(    15)      5  180.000(    21)      0
 ---------------------------------------------------------------------------------------------------
                         Z-Matrix orientation:                         
 ---------------------------------------------------------------------
 Center     Atomic      Atomic             Coordinates (Angstroms)
 Number     Number       Type             X           Y           Z
 ---------------------------------------------------------------------
      1          8           0        0.000000    0.000000    0.000000
      2          1           0        0.000000    0.000000    0.970000
      3          1           0        0.914525    0.000000   -0.323333
      4          8           0       -3.755879   -0.000000   -2.655818
      5          1           0       -4.670405   -0.000000   -2.332489
      6          1           0       -3.755879   -0.000000   -3.625818
      7         -1           0       -1.415248   -0.000000   -1.000735
      8          1           0       -1.625970   -0.000000   -0.702731
      9          1           0       -1.204526   -0.000000   -1.298740
 ---------------------------------------------------------------------
                    Distance matrix (angstroms):
                    1          2          3          4          5
     1  O    0.000000
     2  H    0.970000   0.000000
     3  H    0.970000   1.584003   0.000000
     4  O    4.600000   5.220459   5.220456   0.000000
     5  H    5.220459   5.720063   5.935330   0.970000   0.000000
     6  H    5.220459   5.935333   5.720060   0.970000   1.584001
     7  X    1.733320   2.426257   2.426255   2.866680   3.517046
     8  H    1.771330   2.332768   2.568668   2.889821   3.453215
     9  H    1.771330   2.568670   2.332765   2.889821   3.616760
                    6          7          8          9
     6  H    0.000000
     7  X    3.517046   0.000000
     8  H    3.616760   0.364980   0.000000
     9  H    3.453215   0.364980   0.729960   0.000000
 Stoichiometry    H6O2
 Framework group  CS[SG(H6O2)]
 Deg. of freedom    13
 Full point group                 CS      NOp   2
 Largest Abelian subgroup         CS      NOp   2
 Largest concise Abelian subgroup C1      NOp   1
                         Standard orientation:                         
 ---------------------------------------------------------------------
 Center     Atomic      Atomic             Coordinates (Angstroms)
 Number     Number       Type             X           Y           Z
 ---------------------------------------------------------------------
      1          8           0        0.000000   -2.248484    0.000000
      2          1           0        0.792001   -2.808515    0.000000
      3          1           0       -0.792003   -2.808512    0.000000
      4          8           0        0.000000    2.351516    0.000000
      5          1           0        0.792001    2.911548    0.000000
      6          1           0       -0.792001    2.911548    0.000000
      7          1           0        0.364980   -0.515164    0.000000
      8          1           0       -0.364980   -0.515164    0.000000
 ---------------------------------------------------------------------
 Rotational constants (GHZ):         180.6730268           2.4918312           2.4579316
 Standard basis: 6-31G (6D, 7F)
 There are    26 symmetry adapted cartesian basis functions of A'  symmetry.
 There are     4 symmetry adapted cartesian basis functions of A"  symmetry.
 There are    26 symmetry adapted basis functions of A'  symmetry.
 There are     4 symmetry adapted basis functions of A"  symmetry.
    30 basis functions,    68 primitive gaussians,    30 cartesian basis functions
    11 alpha electrons       11 beta electrons
       nuclear repulsion energy        38.9946415593 Hartrees.
 NAtoms=    8 NActive=    8 NUniq=    8 SFac= 1.00D+00 NAtFMM=   60 NAOKFM=F Big=F
 Integral buffers will be    131072 words long.
 Raffenetti 1 integral format.
 Two-electron integral symmetry is turned on.
 One-electron integrals computed using PRISM.
 NBasis=    30 RedAO= T EigKep=  7.07D-02  NBF=    26     4
 NBsUse=    30 1.00D-06 EigRej= -1.00D+00 NBFU=    26     4
 Initial guess from the checkpoint file:  "2H2_H2_dummy_input_2.chk"
 B after Tr=     0.000000    0.000000    0.000000
         Rot=    1.000000   -0.000000   -0.000000   -0.000000 Ang=   0.00 deg.
 Initial guess orbital symmetries:
       Occupied  (A') (A') (A') (A') (A') (A') (A') (A') (A") (A")
                 (A')
       Virtual   (A') (A') (A') (A') (A') (A') (A') (A') (A') (A')
                 (A") (A") (A') (A') (A') (A') (A') (A') (A')
 ExpMin= 1.61D-01 ExpMax= 5.48D+03 ExpMxC= 8.25D+02 IAcc=2 IRadAn=         4 AccDes= 0.00D+00
 Harris functional with IExCor=  205 and IRadAn=       4 diagonalized for initial guess.
 HarFok:  IExCor=  205 AccDes= 0.00D+00 IRadAn=         4 IDoV= 1 UseB2=F ITyADJ=14
 ICtDFT=  3500011 ScaDFX=  1.000000  1.000000  1.000000  1.000000
 FoFCou: FMM=F IPFlag=           0 FMFlag=      100000 FMFlg1=           0
         NFxFlg=           0 DoJE=T BraDBF=F KetDBF=T FulRan=T
         wScrn=  0.000000 ICntrl=       500 IOpCl=  0 I1Cent=   200000004 NGrid=           0
         NMat0=    1 NMatS0=      1 NMatT0=    0 NMatD0=    1 NMtDS0=    0 NMtDT0=    0
 Petite list used in FoFCou.
 Keep R1 ints in memory in symmetry-blocked form, NReq=2532881.
 Requested convergence on RMS density matrix=1.00D-08 within 128 cycles.
 Requested convergence on MAX density matrix=1.00D-06.
 Requested convergence on             energy=1.00D-06.
 No special actions if energy rises.
 SCF Done:  E(RHF) =  -153.042263712     A.U. after    9 cycles
            NFock=  9  Conv=0.17D-08     -V/T= 1.9987
 Variable Step   Value    
 -------- ---- -----------
    13       7    3.348992
    17       0    1.570796
 ---------------------------------------------------------------------------------------------------
                            Z-MATRIX (ANGSTROMS AND DEGREES)
   CD    Cent   Atom    N1       Length/X        N2       Alpha/Y        N3        Beta/Z          J
 ---------------------------------------------------------------------------------------------------
      1      1  O 
      2      2  H        1   0.970000(     1)
      3      3  H        1   0.970000(     2)      2  109.471(     9)
      4      4  O        1   4.600000(     3)      2  125.265(    10)      3  180.000(    16)      0
      5      5  H        4   0.970000(     4)      1  125.265(    11)      2    0.000(    17)      0
      6      6  H        4   0.970000(     5)      1  125.265(    12)      2  180.000(    18)      0
      7         X        1   1.772210(     6)      2  125.265(    13)      3  180.000(    19)      0
      8      7  H        7   0.364980(     7)      1   90.000(    14)      2    0.000(    20)      0
      9      8  H        7   0.364980(     8)      4   90.000(    15)      5  180.000(    21)      0
 ---------------------------------------------------------------------------------------------------
                         Z-Matrix orientation:                         
 ---------------------------------------------------------------------
 Center     Atomic      Atomic             Coordinates (Angstroms)
 Number     Number       Type             X           Y           Z
 ---------------------------------------------------------------------
      1          8           0        0.000000    0.000000    0.000000
      2          1           0        0.000000    0.000000    0.970000
      3          1           0        0.914525    0.000000   -0.323333
      4          8           0       -3.755879   -0.000000   -2.655818
      5          1           0       -4.670405   -0.000000   -2.332489
      6          1           0       -3.755879   -0.000000   -3.625818
      7         -1           0       -1.447001   -0.000000   -1.023189
      8          1           0       -1.657723   -0.000000   -0.725184
      9          1           0       -1.236280   -0.000000   -1.321193
 ---------------------------------------------------------------------
                    Distance matrix (angstroms):
                    1          2          3          4          5
     1  O    0.000000
     2  H    0.970000   0.000000
     3  H    0.970000   1.584003   0.000000
     4  O    4.600000   5.220459   5.220456   0.000000
     5  H    5.220459   5.720063   5.935330   0.970000   0.000000
     6  H    5.220459   5.935333   5.720060   0.970000   1.584001
     7  X    1.772210   2.463050   2.463048   2.827790   3.479166
     8  H    1.809403   2.371012   2.603449   2.851247   3.414627
     9  H    1.809403   2.603450   2.371009   2.851247   3.579935
                    6          7          8          9
     6  H    0.000000
     7  X    3.479166   0.000000
     8  H    3.579935   0.364980   0.000000
     9  H    3.414627   0.364980   0.729960   0.000000
 Stoichiometry    H6O2
 Framework group  CS[SG(H6O2)]
 Deg. of freedom    13
 Full point group                 CS      NOp   2
 Largest Abelian subgroup         CS      NOp   2
 Largest concise Abelian subgroup C1      NOp   1
                         Standard orientation:                         
 ---------------------------------------------------------------------
 Center     Atomic      Atomic             Coordinates (Angstroms)
 Number     Number       Type             X           Y           Z
 ---------------------------------------------------------------------
      1          8           0        0.000000   -2.252019    0.000000
      2          1           0        0.792001   -2.812051    0.000000
      3          1           0       -0.792003   -2.812047    0.000000
      4          8           0        0.000000    2.347981   -0.000000
      5          1           0        0.792001    2.908012   -0.000000
      6          1           0       -0.792001    2.908012   -0.000000
      7          1           0        0.364980   -0.479809    0.000000
      8          1           0       -0.364980   -0.479809    0.000000
 ---------------------------------------------------------------------
 Rotational constants (GHZ):         180.6730268           2.4928299           2.4589032
 Standard basis: 6-31G (6D, 7F)
 There are    26 symmetry adapted cartesian basis functions of A'  symmetry.
 There are     4 symmetry adapted cartesian basis functions of A"  symmetry.
 There are    26 symmetry adapted basis functions of A'  symmetry.
 There are     4 symmetry adapted basis functions of A"  symmetry.
    30 basis functions,    68 primitive gaussians,    30 cartesian basis functions
    11 alpha electrons       11 beta electrons
       nuclear repulsion energy        38.9273523422 Hartrees.
 NAtoms=    8 NActive=    8 NUniq=    8 SFac= 1.00D+00 NAtFMM=   60 NAOKFM=F Big=F
 Integral buffers will be    131072 words long.
 Raffenetti 1 integral format.
 Two-electron integral symmetry is turned on.
 One-electron integrals computed using PRISM.
 NBasis=    30 RedAO= T EigKep=  7.07D-02  NBF=    26     4
 NBsUse=    30 1.00D-06 EigRej= -1.00D+00 NBFU=    26     4
 Initial guess from the checkpoint file:  "2H2_H2_dummy_input_2.chk"
 B after Tr=    -0.000000   -0.000000    0.000000
         Rot=    1.000000    0.000000   -0.000000   -0.000000 Ang=   0.00 deg.
 Initial guess orbital symmetries:
       Occupied  (A') (A') (A') (A') (A') (A') (A') (A') (A") (A")
                 (A')
       Virtual   (A') (A') (A') (A') (A') (A') (A') (A') (A') (A')
                 (A") (A") (A') (A') (A') (A') (A') (A') (A')
 ExpMin= 1.61D-01 ExpMax= 5.48D+03 ExpMxC= 8.25D+02 IAcc=2 IRadAn=         4 AccDes= 0.00D+00
 Harris functional with IExCor=  205 and IRadAn=       4 diagonalized for initial guess.
 HarFok:  IExCor=  205 AccDes= 0.00D+00 IRadAn=         4 IDoV= 1 UseB2=F ITyADJ=14
 ICtDFT=  3500011 ScaDFX=  1.000000  1.000000  1.000000  1.000000
 FoFCou: FMM=F IPFlag=           0 FMFlag=      100000 FMFlg1=           0
         NFxFlg=           0 DoJE=T BraDBF=F KetDBF=T FulRan=T
         wScrn=  0.000000 ICntrl=       500 IOpCl=  0 I1Cent=   200000004 NGrid=           0
         NMat0=    1 NMatS0=      1 NMatT0=    0 NMatD0=    1 NMtDS0=    0 NMtDT0=    0
 Petite list used in FoFCou.
 Keep R1 ints in memory in symmetry-blocked form, NReq=2532833.
 Requested convergence on RMS density matrix=1.00D-08 within 128 cycles.
 Requested convergence on MAX density matrix=1.00D-06.
 Requested convergence on             energy=1.00D-06.
 No special actions if energy rises.
 SCF Done:  E(RHF) =  -153.047739039     A.U. after    9 cycles
            NFock=  9  Conv=0.15D-08     -V/T= 1.9988
 Variable Step   Value    
 -------- ---- -----------
    13       8    3.422483
    17       0    1.570796
 ---------------------------------------------------------------------------------------------------
                            Z-MATRIX (ANGSTROMS AND DEGREES)
   CD    Cent   Atom    N1       Length/X        N2       Alpha/Y        N3        Beta/Z          J
 ---------------------------------------------------------------------------------------------------
      1      1  O 
      2      2  H        1   0.970000(     1)
      3      3  H        1   0.970000(     2)      2  109.471(     9)
      4      4  O        1   4.600000(     3)      2  125.265(    10)      3  180.000(    16)      0
      5      5  H        4   0.970000(     4)      1  125.265(    11)      2    0.000(    17)      0
      6      6  H        4   0.970000(     5)      1  125.265(    12)      2  180.000(    18)      0
      7         X        1   1.811100(     6)      2  125.265(    13)      3  180.000(    19)      0
      8      7  H        7   0.364980(     7)      1   90.000(    14)      2    0.000(    20)      0
      9      8  H        7   0.364980(     8)      4   90.000(    15)      5  180.000(    21)      0
 ---------------------------------------------------------------------------------------------------
                         Z-Matrix orientation:                         
 ---------------------------------------------------------------------
 Center     Atomic      Atomic             Coordinates (Angstroms)
 Number     Number       Type             X           Y           Z
 ---------------------------------------------------------------------
      1          8           0        0.000000    0.000000    0.000000
      2          1           0        0.000000    0.000000    0.970000
      3          1           0        0.914525    0.000000   -0.323333
      4          8           0       -3.755879   -0.000000   -2.655818
      5          1           0       -4.670405   -0.000000   -2.332489
      6          1           0       -3.755879   -0.000000   -3.625818
      7         -1           0       -1.478755   -0.000000   -1.045642
      8          1           0       -1.689477   -0.000000   -0.747637
      9          1           0       -1.268033   -0.000000   -1.343646
 ---------------------------------------------------------------------
                    Distance matrix (angstroms):
                    1          2          3          4          5
     1  O    0.000000
     2  H    0.970000   0.000000
     3  H    0.970000   1.584003   0.000000
     4  O    4.600000   5.220459   5.220456   0.000000
     5  H    5.220459   5.720063   5.935330   0.970000   0.000000
     6  H    5.220459   5.935333   5.720060   0.970000   1.584001
     7  X    1.811100   2.499906   2.499903   2.788900   3.441309
     8  H    1.847510   2.409276   2.638344   2.812681   3.376046
     9  H    1.847510   2.638346   2.409273   2.812681   3.543155
                    6          7          8          9
     6  H    0.000000
     7  X    3.441309   0.000000
     8  H    3.543155   0.364980   0.000000
     9  H    3.376046   0.364980   0.729960   0.000000
 Stoichiometry    H6O2
 Framework group  CS[SG(H6O2)]
 Deg. of freedom    13
 Full point group                 CS      NOp   2
 Largest Abelian subgroup         CS      NOp   2
 Largest concise Abelian subgroup C1      NOp   1
                         Standard orientation:                         
 ---------------------------------------------------------------------
 Center     Atomic      Atomic             Coordinates (Angstroms)
 Number     Number       Type             X           Y           Z
 ---------------------------------------------------------------------
      1          8           0        0.000000   -2.255555    0.000000
      2          1           0        0.792001   -2.815586    0.000000
      3          1           0       -0.792003   -2.815583    0.000000
      4          8           0        0.000000    2.344445   -0.000000
      5          1           0        0.792001    2.904477   -0.000000
      6          1           0       -0.792001    2.904477   -0.000000
      7          1           0        0.364980   -0.444455    0.000000
      8          1           0       -0.364980   -0.444455    0.000000
 ---------------------------------------------------------------------
 Rotational constants (GHZ):         180.6730268           2.4937582           2.4598065
 Standard basis: 6-31G (6D, 7F)
 There are    26 symmetry adapted cartesian basis functions of A'  symmetry.
 There are     4 symmetry adapted cartesian basis functions of A"  symmetry.
 There are    26 symmetry adapted basis functions of A'  symmetry.
 There are     4 symmetry adapted basis functions of A"  symmetry.
    30 basis functions,    68 primitive gaussians,    30 cartesian basis functions
    11 alpha electrons       11 beta electrons
       nuclear repulsion energy        38.8656957712 Hartrees.
 NAtoms=    8 NActive=    8 NUniq=    8 SFac= 1.00D+00 NAtFMM=   60 NAOKFM=F Big=F
 Integral buffers will be    131072 words long.
 Raffenetti 1 integral format.
 Two-electron integral symmetry is turned on.
 One-electron integrals computed using PRISM.
 NBasis=    30 RedAO= T EigKep=  7.07D-02  NBF=    26     4
 NBsUse=    30 1.00D-06 EigRej= -1.00D+00 NBFU=    26     4
 Initial guess from the checkpoint file:  "2H2_H2_dummy_input_2.chk"
 B after Tr=    -0.000000   -0.000000    0.000000
         Rot=    1.000000    0.000000   -0.000000   -0.000000 Ang=   0.00 deg.
 Initial guess orbital symmetries:
       Occupied  (A') (A') (A') (A') (A') (A') (A') (A') (A") (A")
                 (A')
       Virtual   (A') (A') (A') (A') (A') (A') (A') (A') (A') (A')
                 (A") (A") (A') (A') (A') (A') (A') (A') (A')
 ExpMin= 1.61D-01 ExpMax= 5.48D+03 ExpMxC= 8.25D+02 IAcc=2 IRadAn=         4 AccDes= 0.00D+00
 Harris functional with IExCor=  205 and IRadAn=       4 diagonalized for initial guess.
 HarFok:  IExCor=  205 AccDes= 0.00D+00 IRadAn=         4 IDoV= 1 UseB2=F ITyADJ=14
 ICtDFT=  3500011 ScaDFX=  1.000000  1.000000  1.000000  1.000000
 FoFCou: FMM=F IPFlag=           0 FMFlag=      100000 FMFlg1=           0
         NFxFlg=           0 DoJE=T BraDBF=F KetDBF=T FulRan=T
         wScrn=  0.000000 ICntrl=       500 IOpCl=  0 I1Cent=   200000004 NGrid=           0
         NMat0=    1 NMatS0=      1 NMatT0=    0 NMatD0=    1 NMtDS0=    0 NMtDT0=    0
 Petite list used in FoFCou.
 Keep R1 ints in memory in symmetry-blocked form, NReq=2532779.
 Requested convergence on RMS density matrix=1.00D-08 within 128 cycles.
 Requested convergence on MAX density matrix=1.00D-06.
 Requested convergence on             energy=1.00D-06.
 No special actions if energy rises.
 SCF Done:  E(RHF) =  -153.052551216     A.U. after    8 cycles
            NFock=  8  Conv=0.95D-08     -V/T= 1.9990
 Variable Step   Value    
 -------- ---- -----------
    13       9    3.495974
    17       0    1.570796
 ---------------------------------------------------------------------------------------------------
                            Z-MATRIX (ANGSTROMS AND DEGREES)
   CD    Cent   Atom    N1       Length/X        N2       Alpha/Y        N3        Beta/Z          J
 ---------------------------------------------------------------------------------------------------
      1      1  O 
      2      2  H        1   0.970000(     1)
      3      3  H        1   0.970000(     2)      2  109.471(     9)
      4      4  O        1   4.600000(     3)      2  125.265(    10)      3  180.000(    16)      0
      5      5  H        4   0.970000(     4)      1  125.265(    11)      2    0.000(    17)      0
      6      6  H        4   0.970000(     5)      1  125.265(    12)      2  180.000(    18)      0
      7         X        1   1.849990(     6)      2  125.265(    13)      3  180.000(    19)      0
      8      7  H        7   0.364980(     7)      1   90.000(    14)      2    0.000(    20)      0
      9      8  H        7   0.364980(     8)      4   90.000(    15)      5  180.000(    21)      0
 ---------------------------------------------------------------------------------------------------
                         Z-Matrix orientation:                         
 ---------------------------------------------------------------------
 Center     Atomic      Atomic             Coordinates (Angstroms)
 Number     Number       Type             X           Y           Z
 ---------------------------------------------------------------------
      1          8           0        0.000000    0.000000    0.000000
      2          1           0        0.000000    0.000000    0.970000
      3          1           0        0.914525    0.000000   -0.323333
      4          8           0       -3.755879   -0.000000   -2.655818
      5          1           0       -4.670405   -0.000000   -2.332489
      6          1           0       -3.755879   -0.000000   -3.625818
      7         -1           0       -1.510508   -0.000000   -1.068095
      8          1           0       -1.721230   -0.000000   -0.770091
      9          1           0       -1.299787   -0.000000   -1.366100
 ---------------------------------------------------------------------
                    Distance matrix (angstroms):
                    1          2          3          4          5
     1  O    0.000000
     2  H    0.970000   0.000000
     3  H    0.970000   1.584003   0.000000
     4  O    4.600000   5.220459   5.220456   0.000000
     5  H    5.220459   5.720063   5.935330   0.970000   0.000000
     6  H    5.220459   5.935333   5.720060   0.970000   1.584001
     7  X    1.849990   2.536822   2.536820   2.750010   3.403474
     8  H    1.885649   2.447560   2.673349   2.774124   3.337472
     9  H    1.885649   2.673351   2.447557   2.774124   3.506419
                    6          7          8          9
     6  H    0.000000
     7  X    3.403474   0.000000
     8  H    3.506419   0.364980   0.000000
     9  H    3.337472   0.364980   0.729960   0.000000
 Stoichiometry    H6O2
 Framework group  CS[SG(H6O2)]
 Deg. of freedom    13
 Full point group                 CS      NOp   2
 Largest Abelian subgroup         CS      NOp   2
 Largest concise Abelian subgroup C1      NOp   1
                         Standard orientation:                         
 ---------------------------------------------------------------------
 Center     Atomic      Atomic             Coordinates (Angstroms)
 Number     Number       Type             X           Y           Z
 ---------------------------------------------------------------------
      1          8           0        0.000000   -2.259090    0.000000
      2          1           0        0.792001   -2.819121    0.000000
      3          1           0       -0.792003   -2.819118    0.000000
      4          8           0        0.000000    2.340910   -0.000000
      5          1           0        0.792001    2.900941   -0.000000
      6          1           0       -0.792001    2.900941   -0.000000
      7          1           0        0.364980   -0.409100    0.000000
      8          1           0       -0.364980   -0.409100   -0.000000
 ---------------------------------------------------------------------
 Rotational constants (GHZ):         180.6730268           2.4946162           2.4606413
 Standard basis: 6-31G (6D, 7F)
 There are    26 symmetry adapted cartesian basis functions of A'  symmetry.
 There are     4 symmetry adapted cartesian basis functions of A"  symmetry.
 There are    26 symmetry adapted basis functions of A'  symmetry.
 There are     4 symmetry adapted basis functions of A"  symmetry.
    30 basis functions,    68 primitive gaussians,    30 cartesian basis functions
    11 alpha electrons       11 beta electrons
       nuclear repulsion energy        38.8094702292 Hartrees.
 NAtoms=    8 NActive=    8 NUniq=    8 SFac= 1.00D+00 NAtFMM=   60 NAOKFM=F Big=F
 Integral buffers will be    131072 words long.
 Raffenetti 1 integral format.
 Two-electron integral symmetry is turned on.
 One-electron integrals computed using PRISM.
 NBasis=    30 RedAO= T EigKep=  7.07D-02  NBF=    26     4
 NBsUse=    30 1.00D-06 EigRej= -1.00D+00 NBFU=    26     4
 Initial guess from the checkpoint file:  "2H2_H2_dummy_input_2.chk"
 B after Tr=     0.000000    0.000000    0.000000
         Rot=    1.000000   -0.000000   -0.000000   -0.000000 Ang=   0.00 deg.
 Initial guess orbital symmetries:
       Occupied  (A') (A') (A') (A') (A') (A') (A') (A') (A") (A")
                 (A')
       Virtual   (A') (A') (A') (A') (A') (A') (A') (A') (A') (A')
                 (A") (A") (A') (A') (A') (A') (A') (A') (A')
 ExpMin= 1.61D-01 ExpMax= 5.48D+03 ExpMxC= 8.25D+02 IAcc=2 IRadAn=         4 AccDes= 0.00D+00
 Harris functional with IExCor=  205 and IRadAn=       4 diagonalized for initial guess.
 HarFok:  IExCor=  205 AccDes= 0.00D+00 IRadAn=         4 IDoV= 1 UseB2=F ITyADJ=14
 ICtDFT=  3500011 ScaDFX=  1.000000  1.000000  1.000000  1.000000
 FoFCou: FMM=F IPFlag=           0 FMFlag=      100000 FMFlg1=           0
         NFxFlg=           0 DoJE=T BraDBF=F KetDBF=T FulRan=T
         wScrn=  0.000000 ICntrl=       500 IOpCl=  0 I1Cent=   200000004 NGrid=           0
         NMat0=    1 NMatS0=      1 NMatT0=    0 NMatD0=    1 NMtDS0=    0 NMtDT0=    0
 Petite list used in FoFCou.
 Keep R1 ints in memory in symmetry-blocked form, NReq=2532683.
 Requested convergence on RMS density matrix=1.00D-08 within 128 cycles.
 Requested convergence on MAX density matrix=1.00D-06.
 Requested convergence on             energy=1.00D-06.
 No special actions if energy rises.
 SCF Done:  E(RHF) =  -153.056766252     A.U. after    8 cycles
            NFock=  8  Conv=0.85D-08     -V/T= 1.9991
 Variable Step   Value    
 -------- ---- -----------
    13       0    2.834551
    17       1    1.745329
 ---------------------------------------------------------------------------------------------------
                            Z-MATRIX (ANGSTROMS AND DEGREES)
   CD    Cent   Atom    N1       Length/X        N2       Alpha/Y        N3        Beta/Z          J
 ---------------------------------------------------------------------------------------------------
      1      1  O 
      2      2  H        1   0.970000(     1)
      3      3  H        1   0.970000(     2)      2  109.471(     9)
      4      4  O        1   4.600000(     3)      2  125.265(    10)      3  180.000(    16)      0
      5      5  H        4   0.970000(     4)      1  125.265(    11)      2    0.000(    17)      0
      6      6  H        4   0.970000(     5)      1  125.265(    12)      2  180.000(    18)      0
      7         X        1   1.499980(     6)      2  125.265(    13)      3  180.000(    19)      0
[...]
      1          8           0        0.000000    0.000000    0.000000
      2          1           0        0.000000    0.000000    0.970000
      3          1           0        0.914525    0.000000   -0.323333
      4          8           0       -3.755879   -0.000000   -2.655818
      5          1           0       -4.670405   -0.000000   -2.332489
      6          1           0       -3.755879   -0.000000   -3.625818
      7         -1           0       -1.478755   -0.000000   -1.045642
      8          1           0       -1.776759   -0.000000   -1.256364
      9          1           0       -1.180750   -0.000000   -0.834920
 ---------------------------------------------------------------------
                    Distance matrix (angstroms):
                    1          2          3          4          5
     1  O    0.000000
     2  H    0.970000   0.000000
     3  H    0.970000   1.584003   0.000000
     4  O    4.600000   5.220459   5.220456   0.000000
     5  H    5.220459   5.720063   5.935330   0.970000   0.000000
     6  H    5.220459   5.935333   5.720060   0.970000   1.584001
     7  X    1.811100   2.499906   2.499903   2.788900   3.441309
     8  H    2.176080   2.848433   2.848431   2.423920   3.087269
     9  H    1.446120   2.156828   2.156826   3.153880   3.797420
                    6          7          8          9
     6  H    0.000000
     7  X    3.441309   0.000000
     8  H    3.087269   0.364980   0.000000
     9  H    3.797420   0.364980   0.729960   0.000000
 Stoichiometry    H6O2
 Framework group  CS[SG(H6O2)]
 Deg. of freedom    13
 Full point group                 CS      NOp   2
 Largest Abelian subgroup         CS      NOp   2
 Largest concise Abelian subgroup C1      NOp   1
                         Standard orientation:                         
 ---------------------------------------------------------------------
 Center     Atomic      Atomic             Coordinates (Angstroms)
 Number     Number       Type             X           Y           Z
 ---------------------------------------------------------------------
      1          8           0        0.000000   -2.255555    0.000000
      2          1           0        0.792001   -2.815586   -0.000000
      3          1           0       -0.792003   -2.815583    0.000000
      4          8           0        0.000000    2.344445   -0.000000
      5          1           0        0.792001    2.904477   -0.000000
      6          1           0       -0.792001    2.904477    0.000000
      7          1           0        0.000000   -0.079475    0.000000
      8          1           0        0.000000   -0.809435    0.000000
 ---------------------------------------------------------------------
 Rotational constants (GHZ):         199.8574983           2.4904586           2.4598065
 Standard basis: 6-31G (6D, 7F)
 There are    26 symmetry adapted cartesian basis functions of A'  symmetry.
 There are     4 symmetry adapted cartesian basis functions of A"  symmetry.
 There are    26 symmetry adapted basis functions of A'  symmetry.
 There are     4 symmetry adapted basis functions of A"  symmetry.
    30 basis functions,    68 primitive gaussians,    30 cartesian basis functions
    11 alpha electrons       11 beta electrons
       nuclear repulsion energy        39.2654463157 Hartrees.
 NAtoms=    8 NActive=    8 NUniq=    8 SFac= 1.00D+00 NAtFMM=   60 NAOKFM=F Big=F
 Integral buffers will be    131072 words long.
 Raffenetti 1 integral format.
 Two-electron integral symmetry is turned on.
 One-electron integrals computed using PRISM.
 NBasis=    30 RedAO= T EigKep=  2.91D-02  NBF=    26     4
 NBsUse=    30 1.00D-06 EigRej= -1.00D+00 NBFU=    26     4
 Initial guess from the checkpoint file:  "2H2_H2_dummy_input_2.chk"
 B after Tr=     0.000000    0.000000   -0.000000
         Rot=    1.000000    0.000000   -0.000000   -0.000000 Ang=   0.00 deg.
 Initial guess orbital symmetries:
       Occupied  (A') (A') (A') (A') (A') (A') (A') (A') (A") (A")
                 (A')
       Virtual   (A') (A') (A') (A') (A') (A') (A') (A') (A') (A")
                 (A') (A") (A') (A') (A') (A') (A') (A') (A')
 ExpMin= 1.61D-01 ExpMax= 5.48D+03 ExpMxC= 8.25D+02 IAcc=2 IRadAn=         4 AccDes= 0.00D+00
 Harris functional with IExCor=  205 and IRadAn=       4 diagonalized for initial guess.
 HarFok:  IExCor=  205 AccDes= 0.00D+00 IRadAn=         4 IDoV= 1 UseB2=F ITyADJ=14
 ICtDFT=  3500011 ScaDFX=  1.000000  1.000000  1.000000  1.000000
 FoFCou: FMM=F IPFlag=           0 FMFlag=      100000 FMFlg1=           0
         NFxFlg=           0 DoJE=T BraDBF=F KetDBF=T FulRan=T
         wScrn=  0.000000 ICntrl=       500 IOpCl=  0 I1Cent=   200000004 NGrid=           0
         NMat0=    1 NMatS0=      1 NMatT0=    0 NMatD0=    1 NMtDS0=    0 NMtDT0=    0
 Petite list used in FoFCou.
 Keep R1 ints in memory in symmetry-blocked form, NReq=2532758.
 Requested convergence on RMS density matrix=1.00D-08 within 128 cycles.
 Requested convergence on MAX density matrix=1.00D-06.
 Requested convergence on             energy=1.00D-06.
 No special actions if energy rises.
 SCF Done:  E(RHF) =  -153.058530069     A.U. after    9 cycles
            NFock=  9  Conv=0.57D-08     -V/T= 1.9989
 Variable Step   Value    
 -------- ---- -----------
    13       9    3.495974
    17       9    3.141593
 ---------------------------------------------------------------------------------------------------
                            Z-MATRIX (ANGSTROMS AND DEGREES)
   CD    Cent   Atom    N1       Length/X        N2       Alpha/Y        N3        Beta/Z          J
 ---------------------------------------------------------------------------------------------------
      1      1  O 
      2      2  H        1   0.970000(     1)
      3      3  H        1   0.970000(     2)      2  109.471(     9)
      4      4  O        1   4.600000(     3)      2  125.265(    10)      3  180.000(    16)      0
      5      5  H        4   0.970000(     4)      1  125.265(    11)      2    0.000(    17)      0
      6      6  H        4   0.970000(     5)      1  125.265(    12)      2  180.000(    18)      0
      7         X        1   1.849990(     6)      2  125.265(    13)      3  180.000(    19)      0
      8      7  H        7   0.364980(     7)      1  180.000(    14)      2    0.000(    20)      0
      9      8  H        7   0.364980(     8)      4  180.000(    15)      5  180.000(    21)      0
 ---------------------------------------------------------------------------------------------------
                         Z-Matrix orientation:                         
 ---------------------------------------------------------------------
 Center     Atomic      Atomic             Coordinates (Angstroms)
 Number     Number       Type             X           Y           Z
 ---------------------------------------------------------------------
      1          8           0        0.000000    0.000000    0.000000
      2          1           0        0.000000    0.000000    0.970000
      3          1           0        0.914525    0.000000   -0.323333
      4          8           0       -3.755879   -0.000000   -2.655818
      5          1           0       -4.670405   -0.000000   -2.332489
      6          1           0       -3.755879   -0.000000   -3.625818
      7         -1           0       -1.510508   -0.000000   -1.068095
      8          1           0       -1.808513   -0.000000   -1.278817
      9          1           0       -1.212504   -0.000000   -0.857373
 ---------------------------------------------------------------------
                    Distance matrix (angstroms):
                    1          2          3          4          5
     1  O    0.000000
     2  H    0.970000   0.000000
     3  H    0.970000   1.584003   0.000000
     4  O    4.600000   5.220459   5.220456   0.000000
     5  H    5.220459   5.720063   5.935330   0.970000   0.000000
     6  H    5.220459   5.935333   5.720060   0.970000   1.584001
     7  X    1.849990   2.536822   2.536820   2.750010   3.403474
     8  H    2.214970   2.885810   2.885807   2.385030   3.049697
     9  H    1.485010   2.193048   2.193046   3.114990   3.759394
                    6          7          8          9
     6  H    0.000000
     7  X    3.403474   0.000000
     8  H    3.049697   0.364980   0.000000
     9  H    3.759394   0.364980   0.729960   0.000000
 Stoichiometry    H6O2
 Framework group  CS[SG(H6O2)]
 Deg. of freedom    13
 Full point group                 CS      NOp   2
 Largest Abelian subgroup         CS      NOp   2
 Largest concise Abelian subgroup C1      NOp   1
                         Standard orientation:                         
 ---------------------------------------------------------------------
 Center     Atomic      Atomic             Coordinates (Angstroms)
 Number     Number       Type             X           Y           Z
 ---------------------------------------------------------------------
      1          8           0        0.000000   -2.259090   -0.000000
      2          1           0        0.792001   -2.819121   -0.000000
      3          1           0       -0.792003   -2.819118   -0.000000
      4          8           0        0.000000    2.340910    0.000000
      5          1           0        0.792001    2.900941    0.000000
      6          1           0       -0.792001    2.900941    0.000000
      7          1           0        0.000000   -0.044120   -0.000000
      8          1           0        0.000000   -0.774080   -0.000000
 ---------------------------------------------------------------------
 Rotational constants (GHZ):         199.8574983           2.4913143           2.4606413
 Standard basis: 6-31G (6D, 7F)
 There are    26 symmetry adapted cartesian basis functions of A'  symmetry.
 There are     4 symmetry adapted cartesian basis functions of A"  symmetry.
 There are    26 symmetry adapted basis functions of A'  symmetry.
 There are     4 symmetry adapted basis functions of A"  symmetry.
    30 basis functions,    68 primitive gaussians,    30 cartesian basis functions
    11 alpha electrons       11 beta electrons
       nuclear repulsion energy        39.1939867042 Hartrees.
 NAtoms=    8 NActive=    8 NUniq=    8 SFac= 1.00D+00 NAtFMM=   60 NAOKFM=F Big=F
 Integral buffers will be    131072 words long.
 Raffenetti 1 integral format.
 Two-electron integral symmetry is turned on.
 One-electron integrals computed using PRISM.
 NBasis=    30 RedAO= T EigKep=  2.97D-02  NBF=    26     4
 NBsUse=    30 1.00D-06 EigRej= -1.00D+00 NBFU=    26     4
 Initial guess from the checkpoint file:  "2H2_H2_dummy_input_2.chk"
 B after Tr=     0.000000   -0.000000   -0.000000
         Rot=    1.000000   -0.000000   -0.000000   -0.000000 Ang=   0.00 deg.
 Initial guess orbital symmetries:
       Occupied  (A') (A') (A') (A') (A') (A') (A') (A') (A") (A")
                 (A')
       Virtual   (A') (A') (A') (A') (A') (A') (A') (A') (A') (A")
                 (A') (A") (A') (A') (A') (A') (A') (A') (A')
 ExpMin= 1.61D-01 ExpMax= 5.48D+03 ExpMxC= 8.25D+02 IAcc=2 IRadAn=         4 AccDes= 0.00D+00
 Harris functional with IExCor=  205 and IRadAn=       4 diagonalized for initial guess.
 HarFok:  IExCor=  205 AccDes= 0.00D+00 IRadAn=         4 IDoV= 1 UseB2=F ITyADJ=14
 ICtDFT=  3500011 ScaDFX=  1.000000  1.000000  1.000000  1.000000
 FoFCou: FMM=F IPFlag=           0 FMFlag=      100000 FMFlg1=           0
         NFxFlg=           0 DoJE=T BraDBF=F KetDBF=T FulRan=T
         wScrn=  0.000000 ICntrl=       500 IOpCl=  0 I1Cent=   200000004 NGrid=           0
         NMat0=    1 NMatS0=      1 NMatT0=    0 NMatD0=    1 NMtDS0=    0 NMtDT0=    0
 Petite list used in FoFCou.
 Keep R1 ints in memory in symmetry-blocked form, NReq=2532758.
 Requested convergence on RMS density matrix=1.00D-08 within 128 cycles.
 Requested convergence on MAX density matrix=1.00D-06.
 Requested convergence on             energy=1.00D-06.
 No special actions if energy rises.
 SCF Done:  E(RHF) =  -153.062766433     A.U. after    9 cycles
            NFock=  9  Conv=0.52D-08     -V/T= 1.9991
 Scan completed.
 
 Summary of the potential surface scan:
   N      B6         A6          SCF    
 ----  ---------  ---------  -----------
    1     1.5000    90.0000   -152.99080
    2     1.5389    90.0000   -153.00208
    3     1.5778    90.0000   -153.01214
    4     1.6167    90.0000   -153.02108
    5     1.6555    90.0000   -153.02902
    6     1.6944    90.0000   -153.03605
    7     1.7333    90.0000   -153.04226
    8     1.7722    90.0000   -153.04774
    9     1.8111    90.0000   -153.05255
   10     1.8500    90.0000   -153.05677
   11     1.5000   100.0000   -152.99091
   12     1.5389   100.0000   -153.00219
   13     1.5778   100.0000   -153.01225
   14     1.6167   100.0000   -153.02120
   15     1.6555   100.0000   -153.02914
   16     1.6944   100.0000   -153.03618
   17     1.7333   100.0000   -153.04239
   18     1.7722   100.0000   -153.04787
   19     1.8111   100.0000   -153.05268
   20     1.8500   100.0000   -153.05690
   21     1.5000   110.0000   -152.99123
   22     1.5389   110.0000   -153.00252
   23     1.5778   110.0000   -153.01259
   24     1.6167   110.0000   -153.02155
   25     1.6555   110.0000   -153.02951
   26     1.6944   110.0000   -153.03656
   27     1.7333   110.0000   -153.04278
   28     1.7722   110.0000   -153.04826
   29     1.8111   110.0000   -153.05308
   30     1.8500   110.0000   -153.05730
   31     1.5000   120.0000   -152.99172
   32     1.5389   120.0000   -153.00304
   33     1.5778   120.0000   -153.01314
   34     1.6167   120.0000   -153.02212
   35     1.6555   120.0000   -153.03010
   36     1.6944   120.0000   -153.03717
   37     1.7333   120.0000   -153.04341
   38     1.7722   120.0000   -153.04891
   39     1.8111   120.0000   -153.05373
   40     1.8500   120.0000   -153.05796
   41     1.5000   130.0000   -152.99234
   42     1.5389   130.0000   -153.00370
   43     1.5778   130.0000   -153.01385
   44     1.6167   130.0000   -153.02287
   45     1.6555   130.0000   -153.03089
   46     1.6944   130.0000   -153.03799
   47     1.7333   130.0000   -153.04425
   48     1.7722   130.0000   -153.04976
   49     1.8111   130.0000   -153.05460
   50     1.8500   130.0000   -153.05883
   51     1.5000   140.0000   -152.99299
   52     1.5389   140.0000   -153.00444
   53     1.5778   140.0000   -153.01466
   54     1.6167   140.0000   -153.02374
   55     1.6555   140.0000   -153.03181
   56     1.6944   140.0000   -153.03894
   57     1.7333   140.0000   -153.04524
   58     1.7722   140.0000   -153.05077
   59     1.8111   140.0000   -153.05562
   60     1.8500   140.0000   -153.05986
   61     1.5000   150.0000   -152.99358
   62     1.5389   150.0000   -153.00516
   63     1.5778   150.0000   -153.01548
   64     1.6167   150.0000   -153.02464
   65     1.6555   150.0000   -153.03276
   66     1.6944   150.0000   -153.03994
   67     1.7333   150.0000   -153.04626
   68     1.7722   150.0000   -153.05182
   69     1.8111   150.0000   -153.05668
   70     1.8500   150.0000   -153.06092
   71     1.5000   160.0000   -152.99404
   72     1.5389   160.0000   -153.00578
   73     1.5778   160.0000   -153.01620
   74     1.6167   160.0000   -153.02544
   75     1.6555   160.0000   -153.03362
   76     1.6944   160.0000   -153.04083
   77     1.7333   160.0000   -153.04718
   78     1.7722   160.0000   -153.05275
   79     1.8111   160.0000   -153.05762
   80     1.8500   160.0000   -153.06186
   81     1.5000   170.0000   -152.99433
   82     1.5389   170.0000   -153.00620
   83     1.5778   170.0000   -153.01672
   84     1.6167   170.0000   -153.02602
   85     1.6555   170.0000   -153.03423
   86     1.6944   170.0000   -153.04147
   87     1.7333   170.0000   -153.04784
   88     1.7722   170.0000   -153.05342
   89     1.8111   170.0000   -153.05829
   90     1.8500   170.0000   -153.06253
   91     1.5000   180.0000   -152.99443
   92     1.5389   180.0000   -153.00636
   93     1.5778   180.0000   -153.01690
   94     1.6167   180.0000   -153.02623
   95     1.6555   180.0000   -153.03446
   96     1.6944   180.0000   -153.04171
   97     1.7333   180.0000   -153.04808
   98     1.7722   180.0000   -153.05366
   99     1.8111   180.0000   -153.05853
  100     1.8500   180.0000   -153.06277
 ----  ---------  ---------  -----------
  
 1\1\GINC-NSCC-N12\Scan\RHF\6-31G\H6O2\JKIM22\25-Jun-2020\1\\# scan hf/
 6-31g\\2H2_H2_dummy_input_2\\0,1\O\H,1,B1\H,1,B2,2,A1\O,1,B3,2,A2,3,D1
 ,0\H,4,B4,1,A3,2,D2,0\H,4,B5,1,A4,2,D3,0\X,1,B6,2,A5,3,D4,0\H,7,B7,1,A
 6,2,D5,0\H,7,B8,4,A6,5,D6,0\\B1=0.97\B2=0.97\A1=109.47122063\B3=4.6\A2
 =125.2645\D1=180.\B4=0.97\A3=125.2645\D2=0.\B5=0.97\A4=125.2645\D3=180
 .\B6=1.49998,s,9,0.03889\A5=125.2645\D4=180.\B7=0.36498\A6=90.,s,9,10.
 \D5=0.\B8=0.36498\D6=180.\\Version=ES64L-G16RevA.03\HF=-152.990796,-15
 3.0020805,-153.0121381,-153.0210829,-153.0290213,-153.0360517,-153.042
 2637,-153.047739,-153.0525512,-153.0567663,-152.990906,-153.0021921,-1
 53.012253,-153.0212019,-153.0291444,-153.0361784,-153.0423934,-153.047
 871,-153.0526847,-153.0569006,-152.9912261,-153.0025195,-153.0125922,-
 153.0215544,-153.02951,-153.0365555,-153.0427799,-153.0482644,-153.053
 0828,-153.0573014,-152.9917241,-153.0030388,-153.0131363,-153.022124,-
 153.0301033,-153.0371693,-153.0434102,-153.0489069,-153.0537334,-153.0
 579565,-152.9923404,-153.0037032,-153.0138459,-153.0228747,-153.030890
 1,-153.0379862,-153.0442508,-153.0497649,-153.0546026,-153.0588315,-15
 2.9929898,-153.0044412,-153.014656,-153.0237441,-153.0318077,-153.0389
 422,-153.045236,-153.0507707,-153.0556213,-153.0598562,-152.9935792,-1
 53.0051637,-153.0154775,-153.0246402,-153.0327604,-153.0399371,-153.04
 62612,-153.0518161,-153.0566783,-153.0609174,-152.9940386,-153.0057797
 ,-153.0162036,-153.0254442,-153.0336194,-153.0408343,-153.0471839,-153
 .0527543,-153.0576238,-153.0618636,-152.9943311,-153.0062031,-153.0167
 159,-153.0260166,-153.0342318,-153.0414727,-153.0478382,-153.0534169,-
 153.0582889,-153.0625267,-152.9944328,-153.0063562,-153.0169033,-153.0
 262265,-153.0344563,-153.0417062,-153.0480768,-153.0536578,-153.058530
 1,-153.0627664\RMSD=8.794e-09,3.509e-09,3.027e-09,2.623e-09,2.278e-09,
 1.980e-09,1.721e-09,1.496e-09,9.453e-09,8.511e-09,2.642e-09,5.582e-09,
 4.346e-09,3.444e-09,2.778e-09,2.280e-09,1.904e-09,1.618e-09,1.399e-09,
 9.884e-09,3.918e-09,6.244e-09,4.782e-09,3.748e-09,3.016e-09,2.499e-09,
 2.134e-09,1.872e-09,9.656e-09,8.793e-09,5.581e-09,3.860e-09,1.854e-09,
 1.134e-09,8.121e-09,6.671e-09,5.550e-09,4.788e-09,4.409e-09,4.268e-09,
 7.334e-09,2.830e-09,4.577e-09,4.991e-09,4.535e-09,4.002e-09,9.429e-09,
 8.198e-09,6.962e-09,5.843e-09,8.918e-09,6.240e-09,3.135e-09,6.033e-09,
 5.828e-09,5.244e-09,4.680e-09,4.194e-09,3.787e-09,3.445e-09,9.875e-09,
 2.173e-09,7.450e-09,2.340e-09,6.207e-09,6.125e-09,5.588e-09,5.046e-09,
 4.560e-09,4.133e-09,9.943e-09,2.158e-09,9.958e-09,7.399e-09,2.297e-09,
 1.775e-09,6.203e-09,5.692e-09,5.166e-09,4.679e-09,9.489e-09,2.102e-09,
 1.730e-09,9.101e-09,5.187e-09,5.370e-09,6.007e-09,6.080e-09,5.565e-09,
 5.044e-09,9.100e-09,2.077e-09,1.730e-09,9.498e-09,6.672e-09,4.299e-09,
 6.531e-09,6.055e-09,5.705e-09,5.174e-09\PG=CS [SG(H6O2)]\\@


 ACTORS ARE SO FORTUNATE.  THEY CAN CHOOSE WHETHER
 THEY WILL APPEAR IN A TRAGEDY OR IN COMEDY,
 WHETHER THEY WILL SUFFER OF MAKE MERRY,
 LAUGH OR SHED TEARS.  BUT IN REAL LIFE IT IS DIFFERENT.
 MOST MEN AND WOMEN ARE FORCED TO PERFORM
 PARTS FOR WHICH THEY HAVE NO QUALIFICATIONS.
 THE WORLD IS A STAGE, BUT THE PLAY IS BADLY CAST.

                                   -- OSCAR WILDE
 Job cpu time:       0 days  0 hours  9 minutes 30.1 seconds.
 Elapsed time:       0 days  0 hours  1 minutes  2.4 seconds.
 File lengths (MBytes):  RWF=      6 Int=      0 D2E=      0 Chk=      9 Scr=      1
 Normal termination of Gaussian 16 at Thu Jun 25 12:40:58 2020.
