 Entering Gaussian System, Link 0=g16
 Input=2H2_H2_dummy_input_2.com
 Output=2H2_H2_dummy_input_2.log
 Initial command:
 /export/local/g16/l1.exe "/var/tmp/Gau-140527.inp" -scrdir="/var/tmp/"
 Entering Link 1 = /export/local/g16/l1.exe PID=    140528.
  
 Copyright (c) 1988,1990,1992,1993,1995,1998,2003,2009,2016,
            Gaussian, Inc.  All Rights Reserved.
  
 This is part of the Gaussian(R) 16 program.  It is based on
 the Gaussian(R) 09 system (copyright 2009, Gaussian, Inc.),
 the Gaussian(R) 03 system (copyright 2003, Gaussian, Inc.),
 the Gaussian(R) 98 system (copyright 1998, Gaussian, Inc.),
 the Gaussian(R) 94 system (copyright 1995, Gaussian, Inc.),
 the Gaussian 92(TM) system (copyright 1992, Gaussian, Inc.),
 the Gaussian 90(TM) system (copyright 1990, Gaussian, Inc.),
 the Gaussian 88(TM) system (copyright 1988, Gaussian, Inc.),
 the Gaussian 86(TM) system (copyright 1986, Carnegie Mellon
 University), and the Gaussian 82(TM) system (copyright 1983,
 Carnegie Mellon University). Gaussian is a federally registered
 trademark of Gaussian, Inc.
  
 This software contains proprietary and confidential information,
 including trade secrets, belonging to Gaussian, Inc.
  
 This software is provided under written license and may be
 used, copied, transmitted, or stored only in accord with that
 written license.
  
 The following legend is applicable only to US Government
 contracts under FAR:
  
                    RESTRICTED RIGHTS LEGEND
  
 Use, reproduction and disclosure by the US Government is
 subject to restrictions as set forth in subparagraphs (a)
 and (c) of the Commercial Computer Software - Restricted
 Rights clause in FAR 52.227-19.
  
 Gaussian, Inc.
 340 Quinnipiac St., Bldg. 40, Wallingford CT 06492
  
  
 ---------------------------------------------------------------
 Warning -- This program may not be used in any manner that
 competes with the business of Gaussian, Inc. or will provide
 assistance to any competitor of Gaussian, Inc.  The licensee
 of this program is prohibited from giving any competitor of
 Gaussian, Inc. access to this program.  By using this program,
 the user acknowledges that Gaussian, Inc. is engaged in the
 business of creating and licensing software in the field of
 computational chemistry and represents and warrants to the
 licensee that it is not a competitor of Gaussian, Inc. and that
 it will not use this program in any manner prohibited above.
 ---------------------------------------------------------------
  

 Cite this work as:
 Gaussian 16, Revision A.03,
 M. J. Frisch, G. W. Trucks, H. B. Schlegel, G. E. Scuseria, 
 M. A. Robb, J. R. Cheeseman, G. Scalmani, V. Barone, 
 G. A. Petersson, H. Nakatsuji, X. Li, M. Caricato, A. V. Marenich, 
 J. Bloino, B. G. Janesko, R. Gomperts, B. Mennucci, H. P. Hratchian, 
 J. V. Ortiz, A. F. Izmaylov, J. L. Sonnenberg, D. Williams-Young, 
 F. Ding, F. Lipparini, F. Egidi, J. Goings, B. Peng, A. Petrone, 
 T. Henderson, D. Ranasinghe, V. G. Zakrzewski, J. Gao, N. Rega, 
 G. Zheng, W. Liang, M. Hada, M. Ehara, K. Toyota, R. Fukuda, 
 J. Hasegawa, M. Ishida, T. Nakajima, Y. Honda, O. Kitao, H. Nakai, 
 T. Vreven, K. Throssell, J. A. Montgomery, Jr., J. E. Peralta, 
 F. Ogliaro, M. J. Bearpark, J. J. Heyd, E. N. Brothers, K. N. Kudin, 
 V. N. Staroverov, T. A. Keith, R. Kobayashi, J. Normand, 
 K. Raghavachari, A. P. Rendell, J. C. Burant, S. S. Iyengar, 
 J. Tomasi, M. Cossi, J. M. Millam, M. Klene, C. Adamo, R. Cammi, 
 J. W. Ochterski, R. L. Martin, K. Morokuma, O. Farkas, 
 J. B. Foresman, and D. J. Fox, Gaussian, Inc., Wallingford CT, 2016.
 
 ******************************************
 Gaussian 16:  ES64L-G16RevA.03 25-Dec-2016
                16-Oct-2019 
 ******************************************
 %chk=2H2_H2_dummy_input_2.chk
 -------------------------
 # opt=(Z-matrix) hf/6-31g
 -------------------------
 1/10=7,18=40,38=1/1,3;
 2/12=2,17=6,18=5,29=3,40=1/2;
 3/5=1,6=6,11=9,25=1,30=1,71=1/1,2,3;
 4//1;
 5/5=2,38=5/2;
 6/7=2,8=2,9=2,10=2,28=1/1;
 7/29=1/1,2,3,16;
 1/10=7,18=40/3(2);
 2/29=3/2;
 99//99;
 2/29=3/2;
 3/5=1,6=6,11=9,25=1,30=1,71=1/1,2,3;
 4/5=5,16=3,69=1/1;
 5/5=2,38=5/2;
 7//1,2,3,16;
 1/18=40/3(-5);
 2/29=3/2;
 6/7=2,8=2,9=2,10=2,19=2,28=1/1;
 99/9=1/99;
 -------------------
 2H2O_H2_dummy_input
 -------------------
 Symbolic Z-matrix:
 Charge =  0 Multiplicity = 1
 O
 H                    1    B1
 H                    1    B2       2    A2
 O                    1    B3       2    A3       3    D3       0
 H                    4    B4       1    A4       2    D4       0
 H                    4    B5       1    A5       2    D5       0
 X                    1    B6       2    A6       3    D6       0
 H                    7    B7       1    A7       2    D7       0
 H                    7    B8       1    A8       2    D8       0
       Variables:
  B1                    0.97    -1        0.     
  B2                    0.97    -1        0.     
  A2                  109.471   -1        0.     
  B3                    4.6     -1        0.     
  A3                  125.2645  -1        0.     
  D3                  180.      -1        0.     
  B4                    0.97    -1        0.     
  A4                  125.2645  -1        0.     
  D4                    0.      -1        0.     
  B5                    0.97    -1        0.     
  A5                  125.2645  -1        0.     
  D5                  180.      -1        0.     
  B6                    2.3    Scan 10   -0.1    
  A6                  125.2645  -1        0.     
  D6                  180.      -1        0.     
  B7                    0.36498 -1        0.     
  A7                   90.      -1        0.     
  D7                    0.      -1        0.     
  B8                    0.36498 -1        0.     
  A8                   90.      -1        0.     
  D8                  180.      -1        0.     
 
     1 tetrahedral angles replaced.
    1 tetrahedral angles replaced.

 GradGradGradGradGradGradGradGradGradGradGradGradGradGradGradGradGradGrad
 Berny optimization.
 Initialization pass.
                       ----------------------------
                       !    Initial Parameters    !
                       ! (Angstroms and Degrees)  !
 ----------------------                            ----------------------
 !      Name          Value   Derivative information (Atomic Units)     !
 ------------------------------------------------------------------------
 !       B1          0.97     Frozen                                    !
 !       B2          0.97     Frozen                                    !
 !       A2        109.4712   Frozen                                    !
 !       B3          4.6      Frozen                                    !
 !       A3        125.2645   Frozen                                    !
 !       D3        180.0      Frozen                                    !
 !       B4          0.97     Frozen                                    !
 !       A4        125.2645   Frozen                                    !
 !       D4          0.0      Frozen                                    !
 !       B5          0.97     Frozen                                    !
 !       A5        125.2645   Frozen                                    !
 !       D5        180.0      Frozen                                    !
 !       B6          2.3      Scan                                      !
 !       A6        125.2645   Frozen                                    !
 !       D6        180.0      Frozen                                    !
 !       B7          0.365    Frozen                                    !
 !       A7         90.0      Frozen                                    !
 !       D7          0.0      Frozen                                    !
 !       B8          0.365    Frozen                                    !
 !       A8         90.0      Frozen                                    !
 !       D8        180.0      Frozen                                    !
 ------------------------------------------------------------------------
 Trust Radius=3.00D-01 FncErr=1.00D-07 GrdErr=1.00D-07 EigMax=2.50D+02 EigMin=1.00D-04
 Number of optimizations in scan=  11
 Number of steps in this run=     31 maximum allowed number of steps=    100.
 GradGradGradGradGradGradGradGradGradGradGradGradGradGradGradGradGradGrad

 ---------------------------------------------------------------------------------------------------
                            Z-MATRIX (ANGSTROMS AND DEGREES)
   CD    Cent   Atom    N1       Length/X        N2       Alpha/Y        N3        Beta/Z          J
 ---------------------------------------------------------------------------------------------------
      1      1  O 
      2      2  H        1   0.970000(     1)
      3      3  H        1   0.970000(     2)      2  109.471(     9)
      4      4  O        1   4.600000(     3)      2  125.265(    10)      3  180.000(    16)      0
      5      5  H        4   0.970000(     4)      1  125.265(    11)      2    0.000(    17)      0
      6      6  H        4   0.970000(     5)      1  125.265(    12)      2  180.000(    18)      0
      7         X        1   2.300000(     6)      2  125.265(    13)      3  180.000(    19)      0
      8      7  H        7   0.364980(     7)      1   90.000(    14)      2    0.000(    20)      0
      9      8  H        7   0.364980(     8)      1   90.000(    15)      2  180.000(    21)      0
 ---------------------------------------------------------------------------------------------------
                         Z-Matrix orientation:                         
 ---------------------------------------------------------------------
 Center     Atomic      Atomic             Coordinates (Angstroms)
 Number     Number       Type             X           Y           Z
 ---------------------------------------------------------------------
      1          8           0        0.000000    0.000000    0.000000
      2          1           0        0.000000    0.000000    0.970000
      3          1           0        0.914525    0.000000   -0.323333
      4          8           0       -3.755879   -0.000000   -2.655818
      5          1           0       -4.670405   -0.000000   -2.332489
      6          1           0       -3.755879   -0.000000   -3.625818
      7         -1           0       -1.877940   -0.000000   -1.327909
      8          1           0       -2.088661   -0.000000   -1.029905
      9          1           0       -1.667218   -0.000000   -1.625914
 ---------------------------------------------------------------------
                    Distance matrix (angstroms):
                    1          2          3          4          5
     1  O    0.000000
     2  H    0.970000   0.000000
     3  H    0.970000   1.584003   0.000000
     4  O    4.600000   5.220459   5.220456   0.000000
     5  H    5.220459   5.720063   5.935330   0.970000   0.000000
     6  H    5.220459   5.935333   5.720060   0.970000   1.584001
     7  X    2.300000   2.967666   2.967664   2.300000   2.967666
     8  H    2.328779   2.891734   3.085186   2.328779   2.891734
     9  H    2.328779   3.085188   2.891731   2.328779   3.085188
                    6          7          8          9
     6  H    0.000000
     7  X    2.967666   0.000000
     8  H    3.085188   0.364980   0.000000
     9  H    2.891734   0.364980   0.729960   0.000000
 Stoichiometry    H6O2
 Framework group  CS[SG(H6O2)]
 Deg. of freedom    13
 Full point group                 CS      NOp   2
 Largest Abelian subgroup         CS      NOp   2
 Largest concise Abelian subgroup C1      NOp   1
                         Standard orientation:                         
 ---------------------------------------------------------------------
 Center     Atomic      Atomic             Coordinates (Angstroms)
 Number     Number       Type             X           Y           Z
 ---------------------------------------------------------------------
      1          8           0        0.000000   -2.300000    0.000000
      2          1           0        0.792001   -2.860031    0.000000
      3          1           0       -0.792003   -2.860028    0.000000
      4          8           0        0.000000    2.300000   -0.000000
      5          1           0        0.792001    2.860031   -0.000000
      6          1           0       -0.792001    2.860031   -0.000000
      7          1           0        0.364980   -0.000000    0.000000
      8          1           0       -0.364980   -0.000000   -0.000000
 ---------------------------------------------------------------------
 Rotational constants (GHZ):         180.6730268           2.4993853           2.4652812
 Standard basis: 6-31G (6D, 7F)
 There are    26 symmetry adapted cartesian basis functions of A'  symmetry.
 There are     4 symmetry adapted cartesian basis functions of A"  symmetry.
 There are    26 symmetry adapted basis functions of A'  symmetry.
 There are     4 symmetry adapted basis functions of A"  symmetry.
    30 basis functions,    68 primitive gaussians,    30 cartesian basis functions
    11 alpha electrons       11 beta electrons
       nuclear repulsion energy        38.5095581663 Hartrees.
 NAtoms=    8 NActive=    8 NUniq=    8 SFac= 1.00D+00 NAtFMM=   60 NAOKFM=F Big=F
 Integral buffers will be    131072 words long.
 Raffenetti 1 integral format.
 Two-electron integral symmetry is turned on.
 One-electron integrals computed using PRISM.
 NBasis=    30 RedAO= T EigKep=  7.07D-02  NBF=    26     4
 NBsUse=    30 1.00D-06 EigRej= -1.00D+00 NBFU=    26     4
 ExpMin= 1.61D-01 ExpMax= 5.48D+03 ExpMxC= 8.25D+02 IAcc=3 IRadAn=         5 AccDes= 0.00D+00
 Harris functional with IExCor=  205 and IRadAn=       5 diagonalized for initial guess.
 HarFok:  IExCor=  205 AccDes= 0.00D+00 IRadAn=         5 IDoV= 1 UseB2=F ITyADJ=14
 ICtDFT=  3500011 ScaDFX=  1.000000  1.000000  1.000000  1.000000
 FoFCou: FMM=F IPFlag=           0 FMFlag=      100000 FMFlg1=           0
         NFxFlg=           0 DoJE=T BraDBF=F KetDBF=T FulRan=T
         wScrn=  0.000000 ICntrl=       500 IOpCl=  0 I1Cent=   200000004 NGrid=           0
         NMat0=    1 NMatS0=      1 NMatT0=    0 NMatD0=    1 NMtDS0=    0 NMtDT0=    0
 Petite list used in FoFCou.
 Initial guess orbital symmetries:
       Occupied  (A') (A') (A') (A') (A') (A') (A') (A') (A') (A")
                 (A")
       Virtual   (A') (A') (A') (A') (A') (A') (A') (A") (A") (A')
                 (A') (A') (A') (A') (A') (A') (A') (A') (A')
 The electronic state of the initial guess is 1-A'.
 Keep R1 ints in memory in symmetry-blocked form, NReq=924711.
 Requested convergence on RMS density matrix=1.00D-08 within 128 cycles.
 Requested convergence on MAX density matrix=1.00D-06.
 Requested convergence on             energy=1.00D-06.
 No special actions if energy rises.
 SCF Done:  E(RHF) =  -153.076373366     A.U. after   10 cycles
            NFock= 10  Conv=0.20D-08     -V/T= 1.9998

 **********************************************************************

            Population analysis using the SCF density.

 **********************************************************************

 Orbital symmetries:
       Occupied  (A') (A') (A') (A') (A') (A') (A') (A') (A") (A")
                 (A')
       Virtual   (A') (A') (A') (A') (A') (A') (A') (A') (A') (A')
                 (A") (A") (A') (A') (A') (A') (A') (A') (A')
 The electronic state is 1-A'.
 Alpha  occ. eigenvalues --  -20.54429 -20.54429  -1.33213  -1.33204  -0.69864
 Alpha  occ. eigenvalues --   -0.69859  -0.57279  -0.53810  -0.48511  -0.48506
 Alpha  occ. eigenvalues --   -0.45996
 Alpha virt. eigenvalues --    0.21093   0.21698   0.30575   0.30724   0.31434
 Alpha virt. eigenvalues --    0.91002   1.09389   1.11737   1.15772   1.15910
 Alpha virt. eigenvalues --    1.17874   1.17909   1.21472   1.39311   1.39653
 Alpha virt. eigenvalues --    1.41010   1.57861   1.69165   1.70949
          Condensed to atoms (all electrons):
               1          2          3          4          5          6
     1  O    8.318602   0.253233   0.253233   0.000002  -0.000001  -0.000001
     2  H    0.253233   0.373990  -0.026503  -0.000001   0.000000   0.000000
     3  H    0.253233  -0.026503   0.373990  -0.000001   0.000000   0.000000
     4  O    0.000002  -0.000001  -0.000001   8.318601   0.253233   0.253233
     5  H   -0.000001   0.000000   0.000000   0.253233   0.373991  -0.026503
     6  H   -0.000001   0.000000   0.000000   0.253233  -0.026503   0.373991
     7  H   -0.015392   0.001171   0.000871  -0.015392   0.001171   0.000871
     8  H   -0.015392   0.000871   0.001171  -0.015392   0.000871   0.001171
               7          8
     1  O   -0.015392  -0.015392
     2  H    0.001171   0.000871
     3  H    0.000871   0.001171
     4  O   -0.015392  -0.015392
     5  H    0.001171   0.000871
     6  H    0.000871   0.001171
     7  H    0.608893   0.417998
     8  H    0.417998   0.608894
 Mulliken charges:
               1
     1  O   -0.794284
     2  H    0.397238
     3  H    0.397238
     4  O   -0.794284
     5  H    0.397238
     6  H    0.397238
     7  H   -0.000192
     8  H   -0.000192
 Sum of Mulliken charges =  -0.00000
 Mulliken charges with hydrogens summed into heavy atoms:
               1
     1  O   -0.000000
     4  O    0.000000
 Electronic spatial extent (au):  <R**2>=            441.5930
 Charge=             -0.0000 electrons
 Dipole moment (field-independent basis, Debye):
    X=             -0.0000    Y=              0.0000    Z=             -0.0000  Tot=              0.0000
 Quadrupole moment (field-independent basis, Debye-Ang):
   XX=             -9.6158   YY=              9.2014   ZZ=            -16.5124
   XY=              0.0000   XZ=              0.0000   YZ=             -0.0000
 Traceless Quadrupole moment (field-independent basis, Debye-Ang):
   XX=             -3.9735   YY=             14.8437   ZZ=            -10.8701
   XY=              0.0000   XZ=              0.0000   YZ=             -0.0000
 Octapole moment (field-independent basis, Debye-Ang**2):
  XXX=             -0.0000  YYY=              0.0001  ZZZ=             -0.0000  XYY=             -0.0000
  XXY=             -0.0000  XXZ=              0.0000  XZZ=             -0.0000  YZZ=              0.0000
  YYZ=             -0.0000  XYZ=             -0.0000
 Hexadecapole moment (field-independent basis, Debye-Ang**3):
 XXXX=            -14.1581 YYYY=           -148.8771 ZZZZ=            -12.3389 XXXY=              0.0000
 XXXZ=             -0.0000 YYYX=             -0.0000 YYYZ=             -0.0000 ZZZX=             -0.0000
 ZZZY=              0.0000 XXYY=            -37.9296 XXZZ=             -4.9952 YYZZ=            -84.9672
 XXYZ=              0.0000 YYXZ=              0.0000 ZZXY=             -0.0000
 N-N= 3.850955816633D+01 E-N=-4.408987167253D+02  KE= 1.531088518370D+02
 Symmetry A'   KE= 1.439946831027D+02
 Symmetry A"   KE= 9.114168734323D+00
 Calling FoFJK, ICntrl=      2127 FMM=F ISym2X=1 I1Cent= 0 IOpClX= 0 NMat=1 NMatS=1 NMatT=0.
 ***** Axes restored to original set *****
 -------------------------------------------------------------------
 Center     Atomic                   Forces (Hartrees/Bohr)
 Number     Number              X              Y              Z
 -------------------------------------------------------------------
      1        8           0.031262117    0.000000000    0.022105705
      2        1          -0.000963252   -0.000000000   -0.018503587
      3        1          -0.017766442    0.000000000    0.005259689
      4        8          -0.031262497   -0.000000000   -0.022106015
      5        1           0.017766443   -0.000000000   -0.005259219
      6        1           0.000963636    0.000000000    0.018503439
      7        1           0.004586001   -0.000000000   -0.006485560
      8        1          -0.004586005    0.000000000    0.006485547
 -------------------------------------------------------------------
 Cartesian Forces:  Max     0.031262497 RMS     0.013588326
 -----------------------------------------------------------------------------------------------
                       Internal Coordinate Forces (Hartree/Bohr or radian)
  Cent   Atom   N1       Length/X         N2         Alpha/Y        N3         Beta/Z          J
 -----------------------------------------------------------------------------------------------
      1  O 
      2  H        1  -0.018504(     1)
      3  H        1  -0.018504(     2)      2   0.001766(     9)
      4  O        1   0.015349(     3)      2  -0.000000(    10)      3  -0.000000(    16)     0
      5  H        4  -0.018503(     4)      1  -0.001766(    11)      2  -0.000000(    17)     0
      6  H        4  -0.018503(     5)      1  -0.001766(    12)      2  -0.000000(    18)     0
         X        1   0.000000(     6)      2   0.000000(    13)      3  -0.000000(    19)     0
      7  H        7  -0.007943(     7)      1   0.000000(    14)      2  -0.000000(    20)     0
      8  H        7  -0.007943(     8)      1   0.000000(    15)      2  -0.000000(    21)     0
 -----------------------------------------------------------------------------------------------
 Internal  Forces:  Max     0.018503592 RMS     0.009104313

 GradGradGradGradGradGradGradGradGradGradGradGradGradGradGradGradGradGrad
 Berny optimization.
 Search for a local minimum.
 Step number   1 out of a maximum of   31 on scan point     1 out of    11
 All quantities printed in internal units (Hartrees-Bohrs-Radians)
 Second derivative matrix not updated -- first step.
 ITU=  0
     Eigenvalues --- 1000.000001000.000001000.000001000.000001000.00000
     Eigenvalues --- 1000.000001000.000001000.000001000.000001000.00000
     Eigenvalues --- 1000.000001000.000001000.000001000.000001000.00000
     Eigenvalues --- 1000.000001000.000001000.000001000.000001000.00000
     Eigenvalues --- 1000.00000
 RFO step:  Lambda= 0.00000000D+00 EMin= 1.00000000D+03
 Linear search not attempted -- first point.
 Variable       Old X    -DE/DX   Delta X   Delta X   Delta X     New X
                                 (Linear)    (Quad)   (Total)
    B1        1.83303  -0.01850   0.00000   0.00000   0.00000   1.83303
    B2        1.83303  -0.01850   0.00000   0.00000   0.00000   1.83303
    A2        1.91063   0.00177   0.00000   0.00000   0.00000   1.91063
    B3        8.69274   0.01535   0.00000   0.00000   0.00000   8.69274
    A3        2.18628  -0.00000   0.00000   0.00000   0.00000   2.18628
    D3        3.14159  -0.00000   0.00000   0.00000   0.00000   3.14159
    B4        1.83303  -0.01850   0.00000   0.00000   0.00000   1.83303
    A4        2.18628  -0.00177   0.00000   0.00000   0.00000   2.18628
    D4        0.00000  -0.00000   0.00000   0.00000   0.00000   0.00000
    B5        1.83303  -0.01850   0.00000   0.00000   0.00000   1.83303
    A5        2.18628  -0.00177   0.00000   0.00000   0.00000   2.18628
    D5        3.14159  -0.00000   0.00000   0.00000   0.00000   3.14159
    B6        4.34637   0.00000   0.00000   0.00000   0.00000   4.34637
    A6        2.18628   0.00000   0.00000   0.00000   0.00000   2.18628
    D6        3.14159  -0.00000   0.00000   0.00000   0.00000   3.14159
    B7        0.68971  -0.00794   0.00000   0.00000   0.00000   0.68971
    A7        1.57080   0.00000   0.00000   0.00000   0.00000   1.57080
    D7        0.00000  -0.00000   0.00000   0.00000   0.00000   0.00000
    B8        0.68971  -0.00794   0.00000   0.00000   0.00000   0.68971
    A8        1.57080   0.00000   0.00000   0.00000   0.00000   1.57080
    D8        3.14159  -0.00000   0.00000   0.00000   0.00000   3.14159
         Item               Value     Threshold  Converged?
 Maximum Force            0.000000     0.000450     YES
 RMS     Force            0.000000     0.000300     YES
 Maximum Displacement     0.000000     0.001800     YES
 RMS     Displacement     0.000000     0.001200     YES
 Predicted change in Energy=-0.000000D+00
 Optimization completed.
    -- Stationary point found.
                       ----------------------------
                       !   Optimized Parameters   !
                       ! (Angstroms and Degrees)  !
 ----------------------                            ----------------------
 !      Name          Value   Derivative information (Atomic Units)     !
 ------------------------------------------------------------------------
 !       B1          0.97     -DE/DX =   -0.0185                        !
 !       B2          0.97     -DE/DX =   -0.0185                        !
 !       A2        109.4712   -DE/DX =    0.0018                        !
 !       B3          4.6      -DE/DX =    0.0153                        !
 !       A3        125.2645   -DE/DX =    0.0                           !
 !       D3        180.0      -DE/DX =    0.0                           !
 !       B4          0.97     -DE/DX =   -0.0185                        !
 !       A4        125.2645   -DE/DX =   -0.0018                        !
 !       D4          0.0      -DE/DX =    0.0                           !
 !       B5          0.97     -DE/DX =   -0.0185                        !
 !       A5        125.2645   -DE/DX =   -0.0018                        !
 !       D5        180.0      -DE/DX =    0.0                           !
 !       B6          2.3      -DE/DX =    0.0                           !
 !       A6        125.2645   -DE/DX =    0.0                           !
 !       D6        180.0      -DE/DX =    0.0                           !
 !       B7          0.365    -DE/DX =   -0.0079                        !
 !       A7         90.0      -DE/DX =    0.0                           !
 !       D7          0.0      -DE/DX =    0.0                           !
 !       B8          0.365    -DE/DX =   -0.0079                        !
 !       A8         90.0      -DE/DX =    0.0                           !
 !       D8        180.0      -DE/DX =    0.0                           !
 ------------------------------------------------------------------------
 GradGradGradGradGradGradGradGradGradGradGradGradGradGradGradGradGradGrad

 ---------------------------------------------------------------------------------------------------
                            Z-MATRIX (ANGSTROMS AND DEGREES)
   CD    Cent   Atom    N1       Length/X        N2       Alpha/Y        N3        Beta/Z          J
 ---------------------------------------------------------------------------------------------------
      1      1  O 
      2      2  H        1   0.970000(     1)
      3      3  H        1   0.970000(     2)      2  109.471(     9)
      4      4  O        1   4.600000(     3)      2  125.265(    10)      3  180.000(    16)      0
      5      5  H        4   0.970000(     4)      1  125.265(    11)      2    0.000(    17)      0
      6      6  H        4   0.970000(     5)      1  125.265(    12)      2  180.000(    18)      0
      7         X        1   2.200000(     6)      2  125.265(    13)      3  180.000(    19)      0
      8      7  H        7   0.364980(     7)      1   90.000(    14)      2    0.000(    20)      0
      9      8  H        7   0.364980(     8)      1   90.000(    15)      2  180.000(    21)      0
 ---------------------------------------------------------------------------------------------------
                         Z-Matrix orientation:                         
 ---------------------------------------------------------------------
 Center     Atomic      Atomic             Coordinates (Angstroms)
 Number     Number       Type             X           Y           Z
 ---------------------------------------------------------------------
      1          8           0        0.000000    0.000000    0.000000
      2          1           0        0.000000    0.000000    0.970000
      3          1           0        0.914525    0.000000   -0.323333
      4          8           0       -3.755879   -0.000000   -2.655818
      5          1           0       -4.670405   -0.000000   -2.332489
      6          1           0       -3.755879   -0.000000   -3.625818
      7         -1           0       -1.796290   -0.000000   -1.270174
      8          1           0       -2.007012   -0.000000   -0.972170
      9          1           0       -1.585568   -0.000000   -1.568179
 ---------------------------------------------------------------------
                    Distance matrix (angstroms):
                    1          2          3          4          5
     1  O    0.000000
     2  H    0.970000   0.000000
     3  H    0.970000   1.584003   0.000000
     4  O    4.600000   5.220459   5.220456   0.000000
     5  H    5.220459   5.720063   5.935330   0.970000   0.000000
     6  H    5.220459   5.935333   5.720060   0.970000   1.584001
     7  X    2.200000   2.871417   2.871415   2.400000   3.064156
     8  H    2.230070   2.792869   2.992719   2.427594   2.990674
     9  H    2.230070   2.992721   2.792867   2.427594   3.178111
                    6          7          8          9
     6  H    0.000000
     7  X    3.064156   0.000000
     8  H    3.178111   0.364980   0.000000
     9  H    2.990674   0.364980   0.729960   0.000000
 Stoichiometry    H6O2
 Framework group  CS[SG(H6O2)]
 Deg. of freedom    13
 Full point group                 CS      NOp   2
 Largest Abelian subgroup         CS      NOp   2
 Largest concise Abelian subgroup C1      NOp   1
                         Standard orientation:                         
 ---------------------------------------------------------------------
 Center     Atomic      Atomic             Coordinates (Angstroms)
 Number     Number       Type             X           Y           Z
 ---------------------------------------------------------------------
      1          8           0        0.000000   -2.290909    0.000000
      2          1           0        0.792001   -2.850941    0.000000
      3          1           0       -0.792003   -2.850937    0.000000
      4          8           0        0.000000    2.309091   -0.000000
      5          1           0        0.792001    2.869122   -0.000000
      6          1           0       -0.792001    2.869122   -0.000000
      7          1           0        0.364980   -0.090909   -0.000000
      8          1           0       -0.364980   -0.090909    0.000000
 ---------------------------------------------------------------------
 Rotational constants (GHZ):         180.6730268           2.4991493           2.4650517
 Standard basis: 6-31G (6D, 7F)
 There are    26 symmetry adapted cartesian basis functions of A'  symmetry.
 There are     4 symmetry adapted cartesian basis functions of A"  symmetry.
 There are    26 symmetry adapted basis functions of A'  symmetry.
 There are     4 symmetry adapted basis functions of A"  symmetry.
    30 basis functions,    68 primitive gaussians,    30 cartesian basis functions
    11 alpha electrons       11 beta electrons
       nuclear repulsion energy        38.5239107317 Hartrees.
 NAtoms=    8 NActive=    8 NUniq=    8 SFac= 1.00D+00 NAtFMM=   60 NAOKFM=F Big=F
 Integral buffers will be    131072 words long.
 Raffenetti 1 integral format.
 Two-electron integral symmetry is turned on.
 One-electron integrals computed using PRISM.
 NBasis=    30 RedAO= T EigKep=  7.07D-02  NBF=    26     4
 NBsUse=    30 1.00D-06 EigRej= -1.00D+00 NBFU=    26     4
 Initial guess from the checkpoint file:  "2H2_H2_dummy_input_2.chk"
 B after Tr=    -0.000000   -0.000000   -0.000000
         Rot=    1.000000   -0.000000    0.000000    0.000000 Ang=   0.00 deg.
 Initial guess orbital symmetries:
       Occupied  (A') (A') (A') (A') (A') (A') (A') (A') (A") (A")
                 (A')
       Virtual   (A') (A') (A') (A') (A') (A') (A') (A') (A') (A')
                 (A") (A") (A') (A') (A') (A') (A') (A') (A')
 ExpMin= 1.61D-01 ExpMax= 5.48D+03 ExpMxC= 8.25D+02 IAcc=2 IRadAn=         4 AccDes= 0.00D+00
 Harris functional with IExCor=  205 and IRadAn=       4 diagonalized for initial guess.
 HarFok:  IExCor=  205 AccDes= 0.00D+00 IRadAn=         4 IDoV= 1 UseB2=F ITyADJ=14
 ICtDFT=  3500011 ScaDFX=  1.000000  1.000000  1.000000  1.000000
 FoFCou: FMM=F IPFlag=           0 FMFlag=      100000 FMFlg1=           0
         NFxFlg=           0 DoJE=T BraDBF=F KetDBF=T FulRan=T
         wScrn=  0.000000 ICntrl=       500 IOpCl=  0 I1Cent=   200000004 NGrid=           0
         NMat0=    1 NMatS0=      1 NMatT0=    0 NMatD0=    1 NMtDS0=    0 NMtDT0=    0
 Petite list used in FoFCou.
 Keep R1 ints in memory in symmetry-blocked form, NReq=924739.
 Requested convergence on RMS density matrix=1.00D-08 within 128 cycles.
 Requested convergence on MAX density matrix=1.00D-06.
 Requested convergence on             energy=1.00D-06.
 No special actions if energy rises.
 SCF Done:  E(RHF) =  -153.075547926     A.U. after    8 cycles
            NFock=  8  Conv=0.28D-08     -V/T= 1.9998
 Calling FoFJK, ICntrl=      2127 FMM=F ISym2X=1 I1Cent= 0 IOpClX= 0 NMat=1 NMatS=1 NMatT=0.
 ***** Axes restored to original set *****
 -------------------------------------------------------------------
 Center     Atomic                   Forces (Hartrees/Bohr)
 Number     Number              X              Y              Z
 -------------------------------------------------------------------
      1        8           0.034698121    0.000000000    0.024535341
      2        1          -0.000667414    0.000000000   -0.018130204
      3        1          -0.017315802   -0.000000000    0.005414146
      4        8          -0.028821584   -0.000000000   -0.020380021
      5        1           0.018101543    0.000000000   -0.005127485
      6        1           0.001199536   -0.000000000    0.018775465
      7        1           0.001038222    0.000000000   -0.009099061
      8        1          -0.008232623   -0.000000000    0.004011820
 -------------------------------------------------------------------
 Cartesian Forces:  Max     0.034698121 RMS     0.013823179
 -----------------------------------------------------------------------------------------------
                       Internal Coordinate Forces (Hartree/Bohr or radian)
  Cent   Atom   N1       Length/X         N2         Alpha/Y        N3         Beta/Z          J
 -----------------------------------------------------------------------------------------------
      1  O 
      2  H        1  -0.018130(     1)
      3  H        1  -0.018130(     2)      2   0.001223(     9)
      4  O        1   0.011660(     3)      2  -0.000000(    10)      3   0.000000(    16)     0
      5  H        4  -0.018775(     4)      1  -0.002199(    11)      2   0.000000(    17)     0
      6  H        4  -0.018775(     5)      1  -0.002199(    12)      2   0.000000(    18)     0
         X        1   0.008811(     6)      2   0.000000(    13)      3   0.000000(    19)     0
      7  H        7  -0.008029(     7)      1   0.003039(    14)      2   0.000000(    20)     0
      8  H        7  -0.008029(     8)      1   0.003039(    15)      2   0.000000(    21)     0
 -----------------------------------------------------------------------------------------------
 Internal  Forces:  Max     0.018775465 RMS     0.009088453

 GradGradGradGradGradGradGradGradGradGradGradGradGradGradGradGradGradGrad
 Berny optimization.
 Search for a local minimum.
 Step number   1 out of a maximum of   31 on scan point     2 out of    11
 All quantities printed in internal units (Hartrees-Bohrs-Radians)
 Second derivative matrix not updated -- first step.
 ITU=  0
     Eigenvalues --- 1000.000001000.000001000.000001000.000001000.00000
     Eigenvalues --- 1000.000001000.000001000.000001000.000001000.00000
     Eigenvalues --- 1000.000001000.000001000.000001000.000001000.00000
     Eigenvalues --- 1000.000001000.000001000.000001000.000001000.00000
     Eigenvalues --- 1000.00000
 RFO step:  Lambda= 0.00000000D+00 EMin= 1.00000000D+03
 Linear search not attempted -- first point.
 Variable       Old X    -DE/DX   Delta X   Delta X   Delta X     New X
                                 (Linear)    (Quad)   (Total)
    B1        1.83303  -0.01813   0.00000   0.00000   0.00000   1.83303
    B2        1.83303  -0.01813   0.00000   0.00000   0.00000   1.83303
    A2        1.91063   0.00122   0.00000   0.00000   0.00000   1.91063
    B3        8.69274   0.01166   0.00000   0.00000   0.00000   8.69274
    A3        2.18628  -0.00000   0.00000   0.00000   0.00000   2.18628
    D3        3.14159   0.00000   0.00000   0.00000   0.00000   3.14159
    B4        1.83303  -0.01878   0.00000   0.00000   0.00000   1.83303
    A4        2.18628  -0.00220   0.00000   0.00000   0.00000   2.18628
    D4        0.00000   0.00000   0.00000   0.00000   0.00000   0.00000
    B5        1.83303  -0.01878   0.00000   0.00000   0.00000   1.83303
    A5        2.18628  -0.00220   0.00000   0.00000   0.00000   2.18628
    D5        3.14159   0.00000   0.00000   0.00000   0.00000   3.14159
    B6        4.15740   0.00881   0.00000   0.00000   0.00000   4.15740
    A6        2.18628   0.00000   0.00000   0.00000   0.00000   2.18628
    D6        3.14159   0.00000   0.00000   0.00000   0.00000   3.14159
    B7        0.68971  -0.00803   0.00000   0.00000   0.00000   0.68971
    A7        1.57080   0.00304   0.00000   0.00000   0.00000   1.57080
    D7        0.00000   0.00000   0.00000   0.00000   0.00000   0.00000
    B8        0.68971  -0.00803   0.00000   0.00000   0.00000   0.68971
    A8        1.57080   0.00304   0.00000   0.00000   0.00000   1.57080
    D8        3.14159   0.00000   0.00000   0.00000   0.00000   3.14159
         Item               Value     Threshold  Converged?
 Maximum Force            0.000000     0.000450     YES
 RMS     Force            0.000000     0.000300     YES
 Maximum Displacement     0.000000     0.001800     YES
 RMS     Displacement     0.000000     0.001200     YES
 Predicted change in Energy=-0.000000D+00
 Optimization completed.
    -- Stationary point found.
                       ----------------------------
                       !   Optimized Parameters   !
                       ! (Angstroms and Degrees)  !
 ----------------------                            ----------------------
 !      Name          Value   Derivative information (Atomic Units)     !
 ------------------------------------------------------------------------
 !       B1          0.97     -DE/DX =   -0.0181                        !
 !       B2          0.97     -DE/DX =   -0.0181                        !
 !       A2        109.4712   -DE/DX =    0.0012                        !
 !       B3          4.6      -DE/DX =    0.0117                        !
 !       A3        125.2645   -DE/DX =    0.0                           !
 !       D3        180.0      -DE/DX =    0.0                           !
 !       B4          0.97     -DE/DX =   -0.0188                        !
 !       A4        125.2645   -DE/DX =   -0.0022                        !
 !       D4          0.0      -DE/DX =    0.0                           !
 !       B5          0.97     -DE/DX =   -0.0188                        !
 !       A5        125.2645   -DE/DX =   -0.0022                        !
 !       D5        180.0      -DE/DX =    0.0                           !
 !       B6          2.2      -DE/DX =    0.0088                        !
 !       A6        125.2645   -DE/DX =    0.0                           !
 !       D6        180.0      -DE/DX =    0.0                           !
 !       B7          0.365    -DE/DX =   -0.008                         !
 !       A7         90.0      -DE/DX =    0.003                         !
 !       D7          0.0      -DE/DX =    0.0                           !
 !       B8          0.365    -DE/DX =   -0.008                         !
 !       A8         90.0      -DE/DX =    0.003                         !
 !       D8        180.0      -DE/DX =    0.0                           !
 ------------------------------------------------------------------------
 GradGradGradGradGradGradGradGradGradGradGradGradGradGradGradGradGradGrad

 ---------------------------------------------------------------------------------------------------
                            Z-MATRIX (ANGSTROMS AND DEGREES)
   CD    Cent   Atom    N1       Length/X        N2       Alpha/Y        N3        Beta/Z          J
 ---------------------------------------------------------------------------------------------------
      1      1  O 
      2      2  H        1   0.970000(     1)
      3      3  H        1   0.970000(     2)      2  109.471(     9)
      4      4  O        1   4.600000(     3)      2  125.265(    10)      3  180.000(    16)      0
      5      5  H        4   0.970000(     4)      1  125.265(    11)      2    0.000(    17)      0
      6      6  H        4   0.970000(     5)      1  125.265(    12)      2  180.000(    18)      0
      7         X        1   2.100000(     6)      2  125.265(    13)      3  180.000(    19)      0
      8      7  H        7   0.364980(     7)      1   90.000(    14)      2    0.000(    20)      0
      9      8  H        7   0.364980(     8)      1   90.000(    15)      2  180.000(    21)      0
 ---------------------------------------------------------------------------------------------------
                         Z-Matrix orientation:                         
 ---------------------------------------------------------------------
 Center     Atomic      Atomic             Coordinates (Angstroms)
 Number     Number       Type             X           Y           Z
 ---------------------------------------------------------------------
      1          8           0        0.000000    0.000000    0.000000
      2          1           0        0.000000    0.000000    0.970000
      3          1           0        0.914525    0.000000   -0.323333
      4          8           0       -3.755879   -0.000000   -2.655818
      5          1           0       -4.670405   -0.000000   -2.332489
      6          1           0       -3.755879   -0.000000   -3.625818
      7         -1           0       -1.714640   -0.000000   -1.212439
      8          1           0       -1.925362   -0.000000   -0.914434
      9          1           0       -1.503919   -0.000000   -1.510443
 ---------------------------------------------------------------------
                    Distance matrix (angstroms):
                    1          2          3          4          5
     1  O    0.000000
     2  H    0.970000   0.000000
     3  H    0.970000   1.584003   0.000000
     4  O    4.600000   5.220459   5.220456   0.000000
     5  H    5.220459   5.720063   5.935330   0.970000   0.000000
     6  H    5.220459   5.935333   5.720060   0.970000   1.584001
     7  X    2.100000   2.775434   2.775431   2.500000   3.160863
     8  H    2.131481   2.694089   2.900752   2.526502   3.089683
     9  H    2.131481   2.900753   2.694086   2.526502   3.271452
                    6          7          8          9
     6  H    0.000000
     7  X    3.160863   0.000000
     8  H    3.271452   0.364980   0.000000
     9  H    3.089683   0.364980   0.729960   0.000000
 Stoichiometry    H6O2
 Framework group  CS[SG(H6O2)]
 Deg. of freedom    13
 Full point group                 CS      NOp   2
 Largest Abelian subgroup         CS      NOp   2
 Largest concise Abelian subgroup C1      NOp   1
                         Standard orientation:                         
 ---------------------------------------------------------------------
 Center     Atomic      Atomic             Coordinates (Angstroms)
 Number     Number       Type             X           Y           Z
 ---------------------------------------------------------------------
      1          8           0        0.000000   -2.281818    0.000000
      2          1           0        0.792001   -2.841850    0.000000
      3          1           0       -0.792003   -2.841847    0.000000
      4          8           0        0.000000    2.318182   -0.000000
      5          1           0        0.792001    2.878213   -0.000000
      6          1           0       -0.792001    2.878213   -0.000000
      7          1           0        0.364980   -0.181818    0.000000
      8          1           0       -0.364980   -0.181818    0.000000
 ---------------------------------------------------------------------
 Rotational constants (GHZ):         180.6730268           2.4984418           2.4643633
 Standard basis: 6-31G (6D, 7F)
 There are    26 symmetry adapted cartesian basis functions of A'  symmetry.
 There are     4 symmetry adapted cartesian basis functions of A"  symmetry.
 There are    26 symmetry adapted basis functions of A'  symmetry.
 There are     4 symmetry adapted basis functions of A"  symmetry.
    30 basis functions,    68 primitive gaussians,    30 cartesian basis functions
    11 alpha electrons       11 beta electrons
       nuclear repulsion energy        38.5672462645 Hartrees.
 NAtoms=    8 NActive=    8 NUniq=    8 SFac= 1.00D+00 NAtFMM=   60 NAOKFM=F Big=F
 Integral buffers will be    131072 words long.
 Raffenetti 1 integral format.
 Two-electron integral symmetry is turned on.
 One-electron integrals computed using PRISM.
 NBasis=    30 RedAO= T EigKep=  7.07D-02  NBF=    26     4
 NBsUse=    30 1.00D-06 EigRej= -1.00D+00 NBFU=    26     4
 Initial guess from the checkpoint file:  "2H2_H2_dummy_input_2.chk"
 B after Tr=     0.000000    0.000000    0.000000
         Rot=    1.000000   -0.000000    0.000000    0.000000 Ang=   0.00 deg.
 Initial guess orbital symmetries:
       Occupied  (A') (A') (A') (A') (A') (A') (A') (A') (A") (A")
                 (A')
       Virtual   (A') (A') (A') (A') (A') (A') (A') (A') (A') (A')
                 (A") (A") (A') (A') (A') (A') (A') (A') (A')
 ExpMin= 1.61D-01 ExpMax= 5.48D+03 ExpMxC= 8.25D+02 IAcc=2 IRadAn=         4 AccDes= 0.00D+00
 Harris functional with IExCor=  205 and IRadAn=       4 diagonalized for initial guess.
 HarFok:  IExCor=  205 AccDes= 0.00D+00 IRadAn=         4 IDoV= 1 UseB2=F ITyADJ=14
 ICtDFT=  3500011 ScaDFX=  1.000000  1.000000  1.000000  1.000000
 FoFCou: FMM=F IPFlag=           0 FMFlag=      100000 FMFlg1=           0
         NFxFlg=           0 DoJE=T BraDBF=F KetDBF=T FulRan=T
         wScrn=  0.000000 ICntrl=       500 IOpCl=  0 I1Cent=   200000004 NGrid=           0
         NMat0=    1 NMatS0=      1 NMatT0=    0 NMatD0=    1 NMtDS0=    0 NMtDT0=    0
 Petite list used in FoFCou.
 Keep R1 ints in memory in symmetry-blocked form, NReq=924739.
 Requested convergence on RMS density matrix=1.00D-08 within 128 cycles.
 Requested convergence on MAX density matrix=1.00D-06.
 Requested convergence on             energy=1.00D-06.
 No special actions if energy rises.
 SCF Done:  E(RHF) =  -153.072985726     A.U. after    8 cycles
            NFock=  8  Conv=0.58D-08     -V/T= 1.9997
 Calling FoFJK, ICntrl=      2127 FMM=F ISym2X=1 I1Cent= 0 IOpClX= 0 NMat=1 NMatS=1 NMatT=0.
 ***** Axes restored to original set *****
 -------------------------------------------------------------------
 Center     Atomic                   Forces (Hartrees/Bohr)
 Number     Number              X              Y              Z
 -------------------------------------------------------------------
      1        8           0.039503897    0.000000000    0.027933558
      2        1          -0.000298847    0.000000000   -0.017619454
      3        1          -0.016711409   -0.000000000    0.005591381
      4        8          -0.027094706   -0.000000000   -0.019158929
      5        1           0.018349821    0.000000000   -0.005017219
      6        1           0.001386254   -0.000000000    0.018972789
      7        1          -0.002792031    0.000000000   -0.012104562
      8        1          -0.012342979   -0.000000000    0.001402435
 -------------------------------------------------------------------
 Cartesian Forces:  Max     0.039503897 RMS     0.014570957
 -----------------------------------------------------------------------------------------------
                       Internal Coordinate Forces (Hartree/Bohr or radian)
  Cent   Atom   N1       Length/X         N2         Alpha/Y        N3         Beta/Z          J
 -----------------------------------------------------------------------------------------------
      1  O 
      2  H        1  -0.017619(     1)
      3  H        1  -0.017619(     2)      2   0.000548(     9)
      4  O        1   0.009012(     3)      2  -0.000000(    10)      3   0.000000(    16)     0
      5  H        4  -0.018973(     4)      1  -0.002541(    11)      2   0.000000(    17)     0
      6  H        4  -0.018973(     5)      1  -0.002541(    12)      2   0.000000(    18)     0
         X        1   0.018537(     6)      2   0.000000(    13)      3   0.000000(    19)     0
      7  H        7  -0.008271(     7)      1   0.006392(    14)      2   0.000000(    20)     0
      8  H        7  -0.008271(     8)      1   0.006392(    15)      2   0.000000(    21)     0
 -----------------------------------------------------------------------------------------------
 Internal  Forces:  Max     0.018972789 RMS     0.009752711

 GradGradGradGradGradGradGradGradGradGradGradGradGradGradGradGradGradGrad
 Berny optimization.
 Search for a local minimum.
 Step number   1 out of a maximum of   31 on scan point     3 out of    11
 All quantities printed in internal units (Hartrees-Bohrs-Radians)
 Second derivative matrix not updated -- first step.
 ITU=  0
     Eigenvalues --- 1000.000001000.000001000.000001000.000001000.00000
     Eigenvalues --- 1000.000001000.000001000.000001000.000001000.00000
     Eigenvalues --- 1000.000001000.000001000.000001000.000001000.00000
     Eigenvalues --- 1000.000001000.000001000.000001000.000001000.00000
     Eigenvalues --- 1000.00000
 RFO step:  Lambda= 0.00000000D+00 EMin= 1.00000000D+03
 Linear search not attempted -- first point.
 Variable       Old X    -DE/DX   Delta X   Delta X   Delta X     New X
                                 (Linear)    (Quad)   (Total)
    B1        1.83303  -0.01762   0.00000   0.00000   0.00000   1.83303
    B2        1.83303  -0.01762   0.00000   0.00000   0.00000   1.83303
    A2        1.91063   0.00055   0.00000   0.00000   0.00000   1.91063
    B3        8.69274   0.00901   0.00000   0.00000   0.00000   8.69274
    A3        2.18628  -0.00000   0.00000   0.00000   0.00000   2.18628
    D3        3.14159   0.00000   0.00000   0.00000   0.00000   3.14159
    B4        1.83303  -0.01897   0.00000   0.00000   0.00000   1.83303
    A4        2.18628  -0.00254   0.00000   0.00000   0.00000   2.18628
    D4        0.00000   0.00000   0.00000   0.00000   0.00000   0.00000
    B5        1.83303  -0.01897   0.00000   0.00000   0.00000   1.83303
    A5        2.18628  -0.00254   0.00000   0.00000   0.00000   2.18628
    D5        3.14159   0.00000   0.00000   0.00000   0.00000   3.14159
    B6        3.96842   0.01854   0.00000   0.00000   0.00000   3.96842
    A6        2.18628   0.00000   0.00000   0.00000   0.00000   2.18628
    D6        3.14159   0.00000   0.00000   0.00000   0.00000   3.14159
    B7        0.68971  -0.00827   0.00000   0.00000   0.00000   0.68971
    A7        1.57080   0.00639   0.00000   0.00000   0.00000   1.57080
    D7        0.00000   0.00000   0.00000   0.00000   0.00000   0.00000
    B8        0.68971  -0.00827   0.00000   0.00000   0.00000   0.68971
    A8        1.57080   0.00639   0.00000   0.00000   0.00000   1.57080
    D8        3.14159   0.00000   0.00000   0.00000   0.00000   3.14159
         Item               Value     Threshold  Converged?
 Maximum Force            0.000000     0.000450     YES
 RMS     Force            0.000000     0.000300     YES
 Maximum Displacement     0.000000     0.001800     YES
 RMS     Displacement     0.000000     0.001200     YES
 Predicted change in Energy=-0.000000D+00
 Optimization completed.
    -- Stationary point found.
                       ----------------------------
                       !   Optimized Parameters   !
                       ! (Angstroms and Degrees)  !
 ----------------------                            ----------------------
 !      Name          Value   Derivative information (Atomic Units)     !
 ------------------------------------------------------------------------
 !       B1          0.97     -DE/DX =   -0.0176                        !
 !       B2          0.97     -DE/DX =   -0.0176                        !
 !       A2        109.4712   -DE/DX =    0.0005                        !
 !       B3          4.6      -DE/DX =    0.009                         !
 !       A3        125.2645   -DE/DX =    0.0                           !
 !       D3        180.0      -DE/DX =    0.0                           !
 !       B4          0.97     -DE/DX =   -0.019                         !
 !       A4        125.2645   -DE/DX =   -0.0025                        !
 !       D4          0.0      -DE/DX =    0.0                           !
 !       B5          0.97     -DE/DX =   -0.019                         !
 !       A5        125.2645   -DE/DX =   -0.0025                        !
 !       D5        180.0      -DE/DX =    0.0                           !
 !       B6          2.1      -DE/DX =    0.0185                        !
 !       A6        125.2645   -DE/DX =    0.0                           !
 !       D6        180.0      -DE/DX =    0.0                           !
 !       B7          0.365    -DE/DX =   -0.0083                        !
 !       A7         90.0      -DE/DX =    0.0064                        !
 !       D7          0.0      -DE/DX =    0.0                           !
 !       B8          0.365    -DE/DX =   -0.0083                        !
 !       A8         90.0      -DE/DX =    0.0064                        !
 !       D8        180.0      -DE/DX =    0.0                           !
 ------------------------------------------------------------------------
 GradGradGradGradGradGradGradGradGradGradGradGradGradGradGradGradGradGrad

 ---------------------------------------------------------------------------------------------------
                            Z-MATRIX (ANGSTROMS AND DEGREES)
   CD    Cent   Atom    N1       Length/X        N2       Alpha/Y        N3        Beta/Z          J
 ---------------------------------------------------------------------------------------------------
      1      1  O 
      2      2  H        1   0.970000(     1)
      3      3  H        1   0.970000(     2)      2  109.471(     9)
      4      4  O        1   4.600000(     3)      2  125.265(    10)      3  180.000(    16)      0
      5      5  H        4   0.970000(     4)      1  125.265(    11)      2    0.000(    17)      0
      6      6  H        4   0.970000(     5)      1  125.265(    12)      2  180.000(    18)      0
      7         X        1   2.000000(     6)      2  125.265(    13)      3  180.000(    19)      0
      8      7  H        7   0.364980(     7)      1   90.000(    14)      2    0.000(    20)      0
      9      8  H        7   0.364980(     8)      1   90.000(    15)      2  180.000(    21)      0
 ---------------------------------------------------------------------------------------------------
                         Z-Matrix orientation:                         
 ---------------------------------------------------------------------
 Center     Atomic      Atomic             Coordinates (Angstroms)
 Number     Number       Type             X           Y           Z
 ---------------------------------------------------------------------
      1          8           0        0.000000    0.000000    0.000000
      2          1           0        0.000000    0.000000    0.970000
      3          1           0        0.914525    0.000000   -0.323333
      4          8           0       -3.755879   -0.000000   -2.655818
      5          1           0       -4.670405   -0.000000   -2.332489
      6          1           0       -3.755879   -0.000000   -3.625818
      7         -1           0       -1.632991   -0.000000   -1.154704
      8          1           0       -1.843713   -0.000000   -0.856699
      9          1           0       -1.422269   -0.000000   -1.452708
 ---------------------------------------------------------------------
                    Distance matrix (angstroms):
                    1          2          3          4          5
     1  O    0.000000
     2  H    0.970000   0.000000
     3  H    0.970000   1.584003   0.000000
     4  O    4.600000   5.220459   5.220456   0.000000
     5  H    5.220459   5.720063   5.935330   0.970000   0.000000
     6  H    5.220459   5.935333   5.720060   0.970000   1.584001
     7  X    2.000000   2.679743   2.679741   2.600000   3.257770
     8  H    2.033030   2.595401   2.809333   2.625492   3.188753
     9  H    2.033030   2.809335   2.595398   2.625492   3.365175
                    6          7          8          9
     6  H    0.000000
     7  X    3.257770   0.000000
     8  H    3.365175   0.364980   0.000000
     9  H    3.188753   0.364980   0.729960   0.000000
 Stoichiometry    H6O2
 Framework group  CS[SG(H6O2)]
 Deg. of freedom    13
 Full point group                 CS      NOp   2
 Largest Abelian subgroup         CS      NOp   2
 Largest concise Abelian subgroup C1      NOp   1
                         Standard orientation:                         
 ---------------------------------------------------------------------
 Center     Atomic      Atomic             Coordinates (Angstroms)
 Number     Number       Type             X           Y           Z
 ---------------------------------------------------------------------
      1          8           0        0.000000   -2.272727    0.000000
      2          1           0        0.792001   -2.832759    0.000000
      3          1           0       -0.792003   -2.832756    0.000000
      4          8           0        0.000000    2.327273   -0.000000
      5          1           0        0.792001    2.887304   -0.000000
      6          1           0       -0.792001    2.887304   -0.000000
      7          1           0        0.364980   -0.272727   -0.000000
      8          1           0       -0.364980   -0.272727    0.000000
 ---------------------------------------------------------------------
 Rotational constants (GHZ):         180.6730268           2.4972635           2.4632169
 Standard basis: 6-31G (6D, 7F)
 There are    26 symmetry adapted cartesian basis functions of A'  symmetry.
 There are     4 symmetry adapted cartesian basis functions of A"  symmetry.
 There are    26 symmetry adapted basis functions of A'  symmetry.
 There are     4 symmetry adapted basis functions of A"  symmetry.
    30 basis functions,    68 primitive gaussians,    30 cartesian basis functions
    11 alpha electrons       11 beta electrons
       nuclear repulsion energy        38.6404113774 Hartrees.
 NAtoms=    8 NActive=    8 NUniq=    8 SFac= 1.00D+00 NAtFMM=   60 NAOKFM=F Big=F
 Integral buffers will be    131072 words long.
 Raffenetti 1 integral format.
 Two-electron integral symmetry is turned on.
 One-electron integrals computed using PRISM.
 NBasis=    30 RedAO= T EigKep=  7.07D-02  NBF=    26     4
 NBsUse=    30 1.00D-06 EigRej= -1.00D+00 NBFU=    26     4
 Initial guess from the checkpoint file:  "2H2_H2_dummy_input_2.chk"
 B after Tr=     0.000000    0.000000   -0.000000
         Rot=    1.000000   -0.000000    0.000000    0.000000 Ang=   0.00 deg.
 Initial guess orbital symmetries:
       Occupied  (A') (A') (A') (A') (A') (A') (A') (A') (A") (A")
                 (A')
       Virtual   (A') (A') (A') (A') (A') (A') (A') (A') (A') (A')
                 (A") (A") (A') (A') (A') (A') (A') (A') (A')
 ExpMin= 1.61D-01 ExpMax= 5.48D+03 ExpMxC= 8.25D+02 IAcc=2 IRadAn=         4 AccDes= 0.00D+00
 Harris functional with IExCor=  205 and IRadAn=       4 diagonalized for initial guess.
 HarFok:  IExCor=  205 AccDes= 0.00D+00 IRadAn=         4 IDoV= 1 UseB2=F ITyADJ=14
 ICtDFT=  3500011 ScaDFX=  1.000000  1.000000  1.000000  1.000000
 FoFCou: FMM=F IPFlag=           0 FMFlag=      100000 FMFlg1=           0
         NFxFlg=           0 DoJE=T BraDBF=F KetDBF=T FulRan=T
         wScrn=  0.000000 ICntrl=       500 IOpCl=  0 I1Cent=   200000004 NGrid=           0
         NMat0=    1 NMatS0=      1 NMatT0=    0 NMatD0=    1 NMtDS0=    0 NMtDT0=    0
 Petite list used in FoFCou.
 Keep R1 ints in memory in symmetry-blocked form, NReq=924795.
 Requested convergence on RMS density matrix=1.00D-08 within 128 cycles.
 Requested convergence on MAX density matrix=1.00D-06.
 Requested convergence on             energy=1.00D-06.
 No special actions if energy rises.
 SCF Done:  E(RHF) =  -153.068423432     A.U. after    9 cycles
            NFock=  9  Conv=0.16D-08     -V/T= 1.9995
 Calling FoFJK, ICntrl=      2127 FMM=F ISym2X=1 I1Cent= 0 IOpClX= 0 NMat=1 NMatS=1 NMatT=0.
 ***** Axes restored to original set *****
 -------------------------------------------------------------------
 Center     Atomic                   Forces (Hartrees/Bohr)
 Number     Number              X              Y              Z
 -------------------------------------------------------------------
      1        8           0.046171779    0.000000000    0.032648490
      2        1           0.000157144   -0.000000000   -0.016922471
      3        1          -0.015902293    0.000000000    0.005788963
      4        8          -0.025874530   -0.000000000   -0.018296131
      5        1           0.018532786   -0.000000000   -0.004926727
      6        1           0.001532558    0.000000000    0.019115126
      7        1          -0.007330278   -0.000000000   -0.015744161
      8        1          -0.017287165    0.000000000   -0.001663089
 -------------------------------------------------------------------
 Cartesian Forces:  Max     0.046171779 RMS     0.015960216
 -----------------------------------------------------------------------------------------------
                       Internal Coordinate Forces (Hartree/Bohr or radian)
  Cent   Atom   N1       Length/X         N2         Alpha/Y        N3         Beta/Z          J
 -----------------------------------------------------------------------------------------------
      1  O 
      2  H        1  -0.016922(     1)
      3  H        1  -0.016922(     2)      2  -0.000288(     9)
      4  O        1   0.007115(     3)      2  -0.000000(    10)      3  -0.000000(    16)     0
      5  H        4  -0.019115(     4)      1  -0.002809(    11)      2  -0.000000(    17)     0
      6  H        4  -0.019115(     5)      1  -0.002809(    12)      2  -0.000000(    18)     0
         X        1   0.030150(     6)      2   0.000000(    13)      3  -0.000000(    19)     0
      7  H        7  -0.008623(     7)      1   0.010397(    14)      2  -0.000000(    20)     0
      8  H        7  -0.008623(     8)      1   0.010397(    15)      2  -0.000000(    21)     0
 -----------------------------------------------------------------------------------------------
 Internal  Forces:  Max     0.030150139 RMS     0.011220637

 GradGradGradGradGradGradGradGradGradGradGradGradGradGradGradGradGradGrad
 Berny optimization.
 Search for a local minimum.
 Step number   1 out of a maximum of   31 on scan point     4 out of    11
 All quantities printed in internal units (Hartrees-Bohrs-Radians)
 Second derivative matrix not updated -- first step.
 ITU=  0
     Eigenvalues --- 1000.000001000.000001000.000001000.000001000.00000
     Eigenvalues --- 1000.000001000.000001000.000001000.000001000.00000
     Eigenvalues --- 1000.000001000.000001000.000001000.000001000.00000
     Eigenvalues --- 1000.000001000.000001000.000001000.000001000.00000
     Eigenvalues --- 1000.00000
 RFO step:  Lambda= 0.00000000D+00 EMin= 1.00000000D+03
 Linear search not attempted -- first point.
 Variable       Old X    -DE/DX   Delta X   Delta X   Delta X     New X
                                 (Linear)    (Quad)   (Total)
    B1        1.83303  -0.01692   0.00000   0.00000   0.00000   1.83303
    B2        1.83303  -0.01692   0.00000   0.00000   0.00000   1.83303
    A2        1.91063  -0.00029   0.00000   0.00000   0.00000   1.91063
    B3        8.69274   0.00711   0.00000   0.00000   0.00000   8.69274
    A3        2.18628  -0.00000   0.00000   0.00000   0.00000   2.18628
    D3        3.14159  -0.00000   0.00000   0.00000   0.00000   3.14159
    B4        1.83303  -0.01912   0.00000   0.00000   0.00000   1.83303
    A4        2.18628  -0.00281   0.00000   0.00000   0.00000   2.18628
    D4        0.00000  -0.00000   0.00000   0.00000   0.00000   0.00000
    B5        1.83303  -0.01912   0.00000   0.00000   0.00000   1.83303
    A5        2.18628  -0.00281   0.00000   0.00000   0.00000   2.18628
    D5        3.14159  -0.00000   0.00000   0.00000   0.00000   3.14159
    B6        3.77945   0.03015   0.00000   0.00000   0.00000   3.77945
    A6        2.18628   0.00000   0.00000   0.00000   0.00000   2.18628
    D6        3.14159  -0.00000   0.00000   0.00000   0.00000   3.14159
    B7        0.68971  -0.00862   0.00000   0.00000   0.00000   0.68971
    A7        1.57080   0.01040   0.00000   0.00000   0.00000   1.57080
    D7        0.00000  -0.00000   0.00000   0.00000   0.00000   0.00000
    B8        0.68971  -0.00862   0.00000   0.00000   0.00000   0.68971
    A8        1.57080   0.01040   0.00000   0.00000   0.00000   1.57080
    D8        3.14159  -0.00000   0.00000   0.00000   0.00000   3.14159
         Item               Value     Threshold  Converged?
 Maximum Force            0.000000     0.000450     YES
 RMS     Force            0.000000     0.000300     YES
 Maximum Displacement     0.000000     0.001800     YES
 RMS     Displacement     0.000000     0.001200     YES
 Predicted change in Energy=-0.000000D+00
 Optimization completed.
    -- Stationary point found.
                       ----------------------------
                       !   Optimized Parameters   !
                       ! (Angstroms and Degrees)  !
 ----------------------                            ----------------------
 !      Name          Value   Derivative information (Atomic Units)     !
 ------------------------------------------------------------------------
 !       B1          0.97     -DE/DX =   -0.0169                        !
 !       B2          0.97     -DE/DX =   -0.0169                        !
 !       A2        109.4712   -DE/DX =   -0.0003                        !
 !       B3          4.6      -DE/DX =    0.0071                        !
 !       A3        125.2645   -DE/DX =    0.0                           !
 !       D3        180.0      -DE/DX =    0.0                           !
 !       B4          0.97     -DE/DX =   -0.0191                        !
 !       A4        125.2645   -DE/DX =   -0.0028                        !
 !       D4          0.0      -DE/DX =    0.0                           !
 !       B5          0.97     -DE/DX =   -0.0191                        !
 !       A5        125.2645   -DE/DX =   -0.0028                        !
 !       D5        180.0      -DE/DX =    0.0                           !
 !       B6          2.0      -DE/DX =    0.0302                        !
 !       A6        125.2645   -DE/DX =    0.0                           !
 !       D6        180.0      -DE/DX =    0.0                           !
 !       B7          0.365    -DE/DX =   -0.0086                        !
 !       A7         90.0      -DE/DX =    0.0104                        !
 !       D7          0.0      -DE/DX =    0.0                           !
 !       B8          0.365    -DE/DX =   -0.0086                        !
 !       A8         90.0      -DE/DX =    0.0104                        !
 !       D8        180.0      -DE/DX =    0.0                           !
 ------------------------------------------------------------------------
 GradGradGradGradGradGradGradGradGradGradGradGradGradGradGradGradGradGrad

 ---------------------------------------------------------------------------------------------------
                            Z-MATRIX (ANGSTROMS AND DEGREES)
   CD    Cent   Atom    N1       Length/X        N2       Alpha/Y        N3        Beta/Z          J
 ---------------------------------------------------------------------------------------------------
      1      1  O 
      2      2  H        1   0.970000(     1)
      3      3  H        1   0.970000(     2)      2  109.471(     9)
      4      4  O        1   4.600000(     3)      2  125.265(    10)      3  180.000(    16)      0
      5      5  H        4   0.970000(     4)      1  125.265(    11)      2    0.000(    17)      0
      6      6  H        4   0.970000(     5)      1  125.265(    12)      2  180.000(    18)      0
      7         X        1   1.900000(     6)      2  125.265(    13)      3  180.000(    19)      0
      8      7  H        7   0.364980(     7)      1   90.000(    14)      2    0.000(    20)      0
      9      8  H        7   0.364980(     8)      1   90.000(    15)      2  180.000(    21)      0
 ---------------------------------------------------------------------------------------------------
                         Z-Matrix orientation:                         
 ---------------------------------------------------------------------
 Center     Atomic      Atomic             Coordinates (Angstroms)
 Number     Number       Type             X           Y           Z
 ---------------------------------------------------------------------
      1          8           0        0.000000    0.000000    0.000000
      2          1           0        0.000000    0.000000    0.970000
      3          1           0        0.914525    0.000000   -0.323333
      4          8           0       -3.755879   -0.000000   -2.655818
      5          1           0       -4.670405   -0.000000   -2.332489
      6          1           0       -3.755879   -0.000000   -3.625818
      7         -1           0       -1.551341   -0.000000   -1.096968
      8          1           0       -1.762063   -0.000000   -0.798964
      9          1           0       -1.340620   -0.000000   -1.394973
 ---------------------------------------------------------------------
                    Distance matrix (angstroms):
                    1          2          3          4          5
     1  O    0.000000
     2  H    0.970000   0.000000
     3  H    0.970000   1.584003   0.000000
     4  O    4.600000   5.220459   5.220456   0.000000
     5  H    5.220459   5.720063   5.935330   0.970000   0.000000
     6  H    5.220459   5.935333   5.720060   0.970000   1.584001
     7  X    1.900000   2.584380   2.584378   2.700000   3.354858
     8  H    1.934738   2.496818   2.718519   2.724557   3.287879
     9  H    1.934738   2.718521   2.496815   2.724557   3.459250
                    6          7          8          9
     6  H    0.000000
     7  X    3.354858   0.000000
     8  H    3.459250   0.364980   0.000000
     9  H    3.287879   0.364980   0.729960   0.000000
 Stoichiometry    H6O2
 Framework group  CS[SG(H6O2)]
 Deg. of freedom    13
 Full point group                 CS      NOp   2
 Largest Abelian subgroup         CS      NOp   2
 Largest concise Abelian subgroup C1      NOp   1
                         Standard orientation:                         
 ---------------------------------------------------------------------
 Center     Atomic      Atomic             Coordinates (Angstroms)
 Number     Number       Type             X           Y           Z
 ---------------------------------------------------------------------
      1          8           0        0.000000   -2.263637    0.000000
      2          1           0        0.792001   -2.823668    0.000000
      3          1           0       -0.792003   -2.823665    0.000000
      4          8           0        0.000000    2.336363   -0.000000
      5          1           0        0.792001    2.896395   -0.000000
      6          1           0       -0.792001    2.896395   -0.000000
      7          1           0        0.364980   -0.363637    0.000000
      8          1           0       -0.364980   -0.363637   -0.000000
 ---------------------------------------------------------------------
 Rotational constants (GHZ):         180.6730268           2.4956158           2.4616138
 Standard basis: 6-31G (6D, 7F)
 There are    26 symmetry adapted cartesian basis functions of A'  symmetry.
 There are     4 symmetry adapted cartesian basis functions of A"  symmetry.
 There are    26 symmetry adapted basis functions of A'  symmetry.
 There are     4 symmetry adapted basis functions of A"  symmetry.
    30 basis functions,    68 primitive gaussians,    30 cartesian basis functions
    11 alpha electrons       11 beta electrons
       nuclear repulsion energy        38.7448615288 Hartrees.
 NAtoms=    8 NActive=    8 NUniq=    8 SFac= 1.00D+00 NAtFMM=   60 NAOKFM=F Big=F
 Integral buffers will be    131072 words long.
 Raffenetti 1 integral format.
 Two-electron integral symmetry is turned on.
 One-electron integrals computed using PRISM.
 NBasis=    30 RedAO= T EigKep=  7.07D-02  NBF=    26     4
 NBsUse=    30 1.00D-06 EigRej= -1.00D+00 NBFU=    26     4
 Initial guess from the checkpoint file:  "2H2_H2_dummy_input_2.chk"
 B after Tr=     0.000000    0.000000    0.000000
         Rot=    1.000000    0.000000    0.000000    0.000000 Ang=   0.00 deg.
 Initial guess orbital symmetries:
       Occupied  (A') (A') (A') (A') (A') (A') (A') (A') (A") (A")
                 (A')
       Virtual   (A') (A') (A') (A') (A') (A') (A') (A') (A') (A')
                 (A") (A") (A') (A') (A') (A') (A') (A') (A')
 ExpMin= 1.61D-01 ExpMax= 5.48D+03 ExpMxC= 8.25D+02 IAcc=2 IRadAn=         4 AccDes= 0.00D+00
 Harris functional with IExCor=  205 and IRadAn=       4 diagonalized for initial guess.
 HarFok:  IExCor=  205 AccDes= 0.00D+00 IRadAn=         4 IDoV= 1 UseB2=F ITyADJ=14
 ICtDFT=  3500011 ScaDFX=  1.000000  1.000000  1.000000  1.000000
 FoFCou: FMM=F IPFlag=           0 FMFlag=      100000 FMFlg1=           0
         NFxFlg=           0 DoJE=T BraDBF=F KetDBF=T FulRan=T
         wScrn=  0.000000 ICntrl=       500 IOpCl=  0 I1Cent=   200000004 NGrid=           0
         NMat0=    1 NMatS0=      1 NMatT0=    0 NMatD0=    1 NMtDS0=    0 NMtDT0=    0
 Petite list used in FoFCou.
 Keep R1 ints in memory in symmetry-blocked form, NReq=924823.
 Requested convergence on RMS density matrix=1.00D-08 within 128 cycles.
 Requested convergence on MAX density matrix=1.00D-06.
 Requested convergence on             energy=1.00D-06.
 No special actions if energy rises.
 SCF Done:  E(RHF) =  -153.061402887     A.U. after    9 cycles
            NFock=  9  Conv=0.21D-08     -V/T= 1.9993
 Calling FoFJK, ICntrl=      2127 FMM=F ISym2X=1 I1Cent= 0 IOpClX= 0 NMat=1 NMatS=1 NMatT=0.
 ***** Axes restored to original set *****
 -------------------------------------------------------------------
 Center     Atomic                   Forces (Hartrees/Bohr)
 Number     Number              X              Y              Z
 -------------------------------------------------------------------
      1        8           0.055340562    0.000000000    0.039131836
      2        1           0.000716913    0.000000000   -0.015972209
      3        1          -0.014819793   -0.000000000    0.005999961
      4        8          -0.025011062   -0.000000000   -0.017685564
      5        1           0.018666482    0.000000000   -0.004854237
      6        1           0.001645468   -0.000000000    0.019217014
      7        1          -0.013082273    0.000000000   -0.020253890
      8        1          -0.023456298   -0.000000000   -0.005582911
 -------------------------------------------------------------------
 Cartesian Forces:  Max     0.055340562 RMS     0.018200500
 -----------------------------------------------------------------------------------------------
                       Internal Coordinate Forces (Hartree/Bohr or radian)
  Cent   Atom   N1       Length/X         N2         Alpha/Y        N3         Beta/Z          J
 -----------------------------------------------------------------------------------------------
      1  O 
      2  H        1  -0.015972(     1)
      3  H        1  -0.015972(     2)      2  -0.001314(     9)
      4  O        1   0.005755(     3)      2  -0.000000(    10)      3   0.000000(    16)     0
      5  H        4  -0.019217(     4)      1  -0.003016(    11)      2   0.000000(    17)     0
      6  H        4  -0.019217(     5)      1  -0.003016(    12)      2   0.000000(    18)     0
         X        1   0.044751(     6)      2   0.000000(    13)      3   0.000000(    19)     0
      7  H        7  -0.008984(     7)      1   0.015432(    14)      2   0.000000(    20)     0
      8  H        7  -0.008984(     8)      1   0.015432(    15)      2   0.000000(    21)     0
 -----------------------------------------------------------------------------------------------
 Internal  Forces:  Max     0.044750502 RMS     0.013701259

 GradGradGradGradGradGradGradGradGradGradGradGradGradGradGradGradGradGrad
 Berny optimization.
 Search for a local minimum.
 Step number   1 out of a maximum of   31 on scan point     5 out of    11
 All quantities printed in internal units (Hartrees-Bohrs-Radians)
 Second derivative matrix not updated -- first step.
 ITU=  0
     Eigenvalues --- 1000.000001000.000001000.000001000.000001000.00000
     Eigenvalues --- 1000.000001000.000001000.000001000.000001000.00000
     Eigenvalues --- 1000.000001000.000001000.000001000.000001000.00000
     Eigenvalues --- 1000.000001000.000001000.000001000.000001000.00000
     Eigenvalues --- 1000.00000
 RFO step:  Lambda= 0.00000000D+00 EMin= 1.00000000D+03
 Linear search not attempted -- first point.
 Variable       Old X    -DE/DX   Delta X   Delta X   Delta X     New X
                                 (Linear)    (Quad)   (Total)
    B1        1.83303  -0.01597   0.00000   0.00000   0.00000   1.83303
    B2        1.83303  -0.01597   0.00000   0.00000   0.00000   1.83303
    A2        1.91063  -0.00131   0.00000   0.00000   0.00000   1.91063
    B3        8.69274   0.00576   0.00000   0.00000   0.00000   8.69274
    A3        2.18628  -0.00000   0.00000   0.00000   0.00000   2.18628
    D3        3.14159   0.00000   0.00000   0.00000   0.00000   3.14159
    B4        1.83303  -0.01922   0.00000   0.00000   0.00000   1.83303
    A4        2.18628  -0.00302   0.00000   0.00000   0.00000   2.18628
    D4        0.00000   0.00000   0.00000   0.00000   0.00000   0.00000
    B5        1.83303  -0.01922   0.00000   0.00000   0.00000   1.83303
    A5        2.18628  -0.00302   0.00000   0.00000   0.00000   2.18628
    D5        3.14159   0.00000   0.00000   0.00000   0.00000   3.14159
    B6        3.59048   0.04475   0.00000   0.00000   0.00000   3.59048
    A6        2.18628   0.00000   0.00000   0.00000   0.00000   2.18628
    D6        3.14159   0.00000   0.00000   0.00000   0.00000   3.14159
    B7        0.68971  -0.00898   0.00000   0.00000   0.00000   0.68971
    A7        1.57080   0.01543   0.00000   0.00000   0.00000   1.57080
    D7        0.00000   0.00000   0.00000   0.00000   0.00000   0.00000
    B8        0.68971  -0.00898   0.00000   0.00000   0.00000   0.68971
    A8        1.57080   0.01543   0.00000   0.00000   0.00000   1.57080
    D8        3.14159   0.00000   0.00000   0.00000   0.00000   3.14159
         Item               Value     Threshold  Converged?
 Maximum Force            0.000000     0.000450     YES
 RMS     Force            0.000000     0.000300     YES
 Maximum Displacement     0.000000     0.001800     YES
 RMS     Displacement     0.000000     0.001200     YES
 Predicted change in Energy=-0.000000D+00
 Optimization completed.
    -- Stationary point found.
                       ----------------------------
[...]
 Cartesian Forces:  Max     0.215630418 RMS     0.067960576
 -----------------------------------------------------------------------------------------------
                       Internal Coordinate Forces (Hartree/Bohr or radian)
  Cent   Atom   N1       Length/X         N2         Alpha/Y        N3         Beta/Z          J
 -----------------------------------------------------------------------------------------------
      1  O 
      2  H        1   0.005572(     1)
      3  H        1   0.005572(     2)      2  -0.012536(     9)
      4  O        1   0.002828(     3)      2  -0.000000(    10)      3  -0.000000(    16)     0
      5  H        4  -0.019421(     4)      1  -0.003481(    11)      2  -0.000000(    17)     0
      6  H        4  -0.019421(     5)      1  -0.003481(    12)      2  -0.000000(    18)     0
         X        1   0.278867(     6)      2   0.000000(    13)      3  -0.000000(    19)     0
      7  H        7   0.015775(     7)      1   0.096169(    14)      2  -0.000000(    20)     0
      8  H        7   0.015775(     8)      1   0.096169(    15)      2   0.000000(    21)     0
 -----------------------------------------------------------------------------------------------
 Internal  Forces:  Max     0.278866913 RMS     0.068231855

 GradGradGradGradGradGradGradGradGradGradGradGradGradGradGradGradGradGrad
 Berny optimization.
 Search for a local minimum.
 Step number   1 out of a maximum of   31 on scan point    11 out of    11
 All quantities printed in internal units (Hartrees-Bohrs-Radians)
 Second derivative matrix not updated -- first step.
 ITU=  0
     Eigenvalues --- 1000.000001000.000001000.000001000.000001000.00000
     Eigenvalues --- 1000.000001000.000001000.000001000.000001000.00000
     Eigenvalues --- 1000.000001000.000001000.000001000.000001000.00000
     Eigenvalues --- 1000.000001000.000001000.000001000.000001000.00000
     Eigenvalues --- 1000.00000
 RFO step:  Lambda= 0.00000000D+00 EMin= 1.00000000D+03
 Linear search not attempted -- first point.
 Variable       Old X    -DE/DX   Delta X   Delta X   Delta X     New X
                                 (Linear)    (Quad)   (Total)
    B1        1.83303   0.00557   0.00000   0.00000   0.00000   1.83303
    B2        1.83303   0.00557   0.00000   0.00000   0.00000   1.83303
    A2        1.91063  -0.01254   0.00000   0.00000   0.00000   1.91063
    B3        8.69274   0.00283   0.00000   0.00000   0.00000   8.69274
    A3        2.18628  -0.00000   0.00000   0.00000   0.00000   2.18628
    D3        3.14159  -0.00000   0.00000   0.00000   0.00000   3.14159
    B4        1.83303  -0.01942   0.00000   0.00000   0.00000   1.83303
    A4        2.18628  -0.00348   0.00000   0.00000   0.00000   2.18628
    D4        0.00000  -0.00000   0.00000   0.00000   0.00000   0.00000
    B5        1.83303  -0.01942   0.00000   0.00000   0.00000   1.83303
    A5        2.18628  -0.00348   0.00000   0.00000   0.00000   2.18628
    D5        3.14159  -0.00000   0.00000   0.00000   0.00000   3.14159
    B6        2.45664   0.27887   0.00000   0.00000   0.00000   2.45664
    A6        2.18628   0.00000   0.00000   0.00000   0.00000   2.18628
    D6        3.14159  -0.00000   0.00000   0.00000   0.00000   3.14159
    B7        0.68971   0.01578   0.00000   0.00000   0.00000   0.68971
    A7        1.57080   0.09617   0.00000   0.00000   0.00000   1.57080
    D7        0.00000  -0.00000   0.00000   0.00000   0.00000   0.00000
    B8        0.68971   0.01578   0.00000   0.00000   0.00000   0.68971
    A8        1.57080   0.09617   0.00000   0.00000   0.00000   1.57080
    D8        3.14159   0.00000   0.00000   0.00000   0.00000   3.14159
         Item               Value     Threshold  Converged?
 Maximum Force            0.000000     0.000450     YES
 RMS     Force            0.000000     0.000300     YES
 Maximum Displacement     0.000000     0.001800     YES
 RMS     Displacement     0.000000     0.001200     YES
 Predicted change in Energy=-0.000000D+00
 Optimization completed.
    -- Stationary point found.
                       ----------------------------
                       !   Optimized Parameters   !
                       ! (Angstroms and Degrees)  !
 ----------------------                            ----------------------
 !      Name          Value   Derivative information (Atomic Units)     !
 ------------------------------------------------------------------------
 !       B1          0.97     -DE/DX =    0.0056                        !
 !       B2          0.97     -DE/DX =    0.0056                        !
 !       A2        109.4712   -DE/DX =   -0.0125                        !
 !       B3          4.6      -DE/DX =    0.0028                        !
 !       A3        125.2645   -DE/DX =    0.0                           !
 !       D3        180.0      -DE/DX =    0.0                           !
 !       B4          0.97     -DE/DX =   -0.0194                        !
 !       A4        125.2645   -DE/DX =   -0.0035                        !
 !       D4          0.0      -DE/DX =    0.0                           !
 !       B5          0.97     -DE/DX =   -0.0194                        !
 !       A5        125.2645   -DE/DX =   -0.0035                        !
 !       D5        180.0      -DE/DX =    0.0                           !
 !       B6          1.3      -DE/DX =    0.2789                        !
 !       A6        125.2645   -DE/DX =    0.0                           !
 !       D6        180.0      -DE/DX =    0.0                           !
 !       B7          0.365    -DE/DX =    0.0158                        !
 !       A7         90.0      -DE/DX =    0.0962                        !
 !       D7          0.0      -DE/DX =    0.0                           !
 !       B8          0.365    -DE/DX =    0.0158                        !
 !       A8         90.0      -DE/DX =    0.0962                        !
 !       D8        180.0      -DE/DX =    0.0                           !
 ------------------------------------------------------------------------
 Summary of Optimized Potential Surface Scan (add -153.0 to energies):
                           1         2         3         4         5
     Eigenvalues --    -0.07637  -0.07555  -0.07299  -0.06842  -0.06140
           B1           0.97000   0.97000   0.97000   0.97000   0.97000
           B2           0.97000   0.97000   0.97000   0.97000   0.97000
           A2         109.47122 109.47122 109.47122 109.47122 109.47122
           B3           4.60000   4.60000   4.60000   4.60000   4.60000
           A3         125.26450 125.26450 125.26450 125.26450 125.26450
           D3         180.00000 180.00000 180.00000 180.00000 180.00000
           B4           0.97000   0.97000   0.97000   0.97000   0.97000
           A4         125.26450 125.26450 125.26450 125.26450 125.26450
           D4           0.00000   0.00000   0.00000   0.00000   0.00000
           B5           0.97000   0.97000   0.97000   0.97000   0.97000
           A5         125.26450 125.26450 125.26450 125.26450 125.26450
           D5         180.00000 180.00000 180.00000 180.00000 180.00000
           B6           2.30000   2.20000   2.10000   2.00000   1.90000
           A6         125.26450 125.26450 125.26450 125.26450 125.26450
           D6         180.00000 180.00000 180.00000 180.00000 180.00000
           B7           0.36498   0.36498   0.36498   0.36498   0.36498
           A7          90.00000  90.00000  90.00000  90.00000  90.00000
           D7           0.00000   0.00000   0.00000   0.00000   0.00000
           B8           0.36498   0.36498   0.36498   0.36498   0.36498
           A8          90.00000  90.00000  90.00000  90.00000  90.00000
           D8         180.00000 180.00000 180.00000 180.00000 180.00000
                           6         7         8         9        10
     Eigenvalues --    -0.05124  -0.03699  -0.01738   0.00920   0.04470
           B1           0.97000   0.97000   0.97000   0.97000   0.97000
           B2           0.97000   0.97000   0.97000   0.97000   0.97000
           A2         109.47122 109.47122 109.47122 109.47122 109.47122
           B3           4.60000   4.60000   4.60000   4.60000   4.60000
           A3         125.26450 125.26450 125.26450 125.26450 125.26450
           D3         180.00000 180.00000 180.00000 180.00000 180.00000
           B4           0.97000   0.97000   0.97000   0.97000   0.97000
           A4         125.26450 125.26450 125.26450 125.26450 125.26450
           D4           0.00000   0.00000   0.00000   0.00000   0.00000
           B5           0.97000   0.97000   0.97000   0.97000   0.97000
           A5         125.26450 125.26450 125.26450 125.26450 125.26450
           D5         180.00000 180.00000 180.00000 180.00000 180.00000
           B6           1.80000   1.70000   1.60000   1.50000   1.40000
           A6         125.26450 125.26450 125.26450 125.26450 125.26450
           D6         180.00000 180.00000 180.00000 180.00000 180.00000
           B7           0.36498   0.36498   0.36498   0.36498   0.36498
           A7          90.00000  90.00000  90.00000  90.00000  90.00000
           D7           0.00000   0.00000   0.00000   0.00000   0.00000
           B8           0.36498   0.36498   0.36498   0.36498   0.36498
           A8          90.00000  90.00000  90.00000  90.00000  90.00000
           D8         180.00000 180.00000 180.00000 180.00000 180.00000
                          11
     Eigenvalues --     0.09123
           B1           0.97000
           B2           0.97000
           A2         109.47122
           B3           4.60000
           A3         125.26450
           D3         180.00000
           B4           0.97000
           A4         125.26450
           D4           0.00000
           B5           0.97000
           A5         125.26450
           D5         180.00000
           B6           1.30000
           A6         125.26450
           D6         180.00000
           B7           0.36498
           A7          90.00000
           D7           0.00000
           B8           0.36498
           A8          90.00000
           D8         180.00000
 GradGradGradGradGradGradGradGradGradGradGradGradGradGradGradGradGradGrad

 ---------------------------------------------------------------------------------------------------
                            Z-MATRIX (ANGSTROMS AND DEGREES)
   CD    Cent   Atom    N1       Length/X        N2       Alpha/Y        N3        Beta/Z          J
 ---------------------------------------------------------------------------------------------------
      1      1  O 
      2      2  H        1   0.970000(     1)
      3      3  H        1   0.970000(     2)      2  109.471(     9)
      4      4  O        1   4.600000(     3)      2  125.265(    10)      3  180.000(    16)      0
      5      5  H        4   0.970000(     4)      1  125.265(    11)      2    0.000(    17)      0
      6      6  H        4   0.970000(     5)      1  125.265(    12)      2  180.000(    18)      0
      7         X        1   1.300000(     6)      2  125.265(    13)      3  180.000(    19)      0
      8      7  H        7   0.364980(     7)      1   90.000(    14)      2    0.000(    20)      0
      9      8  H        7   0.364980(     8)      1   90.000(    15)      2  180.000(    21)      0
 ---------------------------------------------------------------------------------------------------
                         Z-Matrix orientation:                         
 ---------------------------------------------------------------------
 Center     Atomic      Atomic             Coordinates (Angstroms)
 Number     Number       Type             X           Y           Z
 ---------------------------------------------------------------------
      1          8           0        0.000000    0.000000    0.000000
      2          1           0        0.000000    0.000000    0.970000
      3          1           0        0.914525    0.000000   -0.323333
      4          8           0       -3.755879   -0.000000   -2.655818
      5          1           0       -4.670405   -0.000000   -2.332489
      6          1           0       -3.755879   -0.000000   -3.625818
      7         -1           0       -1.061444   -0.000000   -0.750557
      8          1           0       -1.272166   -0.000000   -0.452553
      9          1           0       -0.850722   -0.000000   -1.048562
 ---------------------------------------------------------------------
                    Distance matrix (angstroms):
                    1          2          3          4          5
     1  O    0.000000
     2  H    0.970000   0.000000
     3  H    0.970000   1.584003   0.000000
     4  O    4.600000   5.220459   5.220456   0.000000
     5  H    5.220459   5.720063   5.935330   0.970000   0.000000
     6  H    5.220459   5.935333   5.720060   0.970000   1.584001
     7  X    1.300000   2.021628   2.021626   3.300000   3.940445
     8  H    1.350263   1.908419   2.190505   3.320122   3.883579
     9  H    1.350263   2.190507   1.908416   3.320122   4.029695
                    6          7          8          9
     6  H    0.000000
     7  X    3.940445   0.000000
     8  H    4.029695   0.364980   0.000000
     9  H    3.883579   0.364980   0.729960   0.000000
 Stoichiometry    H6O2
 Framework group  CS[SG(H6O2)]
 Deg. of freedom    13
 Full point group                 CS      NOp   2
 Largest Abelian subgroup         CS      NOp   2
 Largest concise Abelian subgroup C1      NOp   1
                         Standard orientation:                         
 ---------------------------------------------------------------------
 Center     Atomic      Atomic             Coordinates (Angstroms)
 Number     Number       Type             X           Y           Z
 ---------------------------------------------------------------------
      1          8           0        0.000000   -2.209091    0.000000
      2          1           0        0.792001   -2.769122    0.000000
      3          1           0       -0.792003   -2.769119    0.000000
      4          8           0        0.000000    2.390909   -0.000000
      5          1           0        0.792001    2.950940   -0.000000
      6          1           0       -0.792001    2.950940   -0.000000
      7          1           0        0.364980   -0.909091    0.000000
      8          1           0       -0.364980   -0.909091    0.000000
 ---------------------------------------------------------------------
 Rotational constants (GHZ):         180.6730268           2.4760110           2.4425376

 **********************************************************************

            Population analysis using the SCF density.

 **********************************************************************

 Orbital symmetries:
       Occupied  (A') (A') (A') (A') (A') (A') (A') (A") (A') (A")
                 (A')
       Virtual   (A') (A') (A') (A') (A') (A') (A') (A") (A') (A')
                 (A') (A") (A') (A') (A') (A') (A') (A') (A')
 The electronic state is 1-A'.
 Alpha  occ. eigenvalues --  -20.56501 -20.54115  -1.39057  -1.32672  -0.74655
 Alpha  occ. eigenvalues --   -0.74257  -0.69351  -0.53327  -0.52833  -0.47980
 Alpha  occ. eigenvalues --   -0.30245
 Alpha virt. eigenvalues --    0.21158   0.22039   0.27751   0.30830   0.31181
 Alpha virt. eigenvalues --    0.78891   1.09799   1.13401   1.14836   1.16160
 Alpha virt. eigenvalues --    1.17436   1.18471   1.25928   1.37369   1.40526
 Alpha virt. eigenvalues --    1.41451   1.57915   1.68011   1.69663
          Condensed to atoms (all electrons):
               1          2          3          4          5          6
     1  O    9.328227   0.148392   0.148393  -0.000004  -0.000002  -0.000002
     2  H    0.148392   0.375829   0.009649  -0.000001   0.000000   0.000000
     3  H    0.148393   0.009649   0.375828  -0.000001   0.000000   0.000000
     4  O   -0.000004  -0.000001  -0.000001   8.282661   0.254993   0.254993
     5  H   -0.000002   0.000000   0.000000   0.254993   0.376180  -0.027758
     6  H   -0.000002   0.000000   0.000000   0.254993  -0.027758   0.376180
     7  H   -0.449485   0.048963   0.032510   0.000129   0.000116   0.000072
     8  H   -0.449485   0.032510   0.048963   0.000129   0.000072   0.000116
               7          8
     1  O   -0.449485  -0.449485
     2  H    0.048963   0.032510
     3  H    0.032510   0.048963
     4  O    0.000129   0.000129
     5  H    0.000116   0.000072
     6  H    0.000072   0.000116
     7  H    0.807954   0.581328
     8  H    0.581328   0.807956
 Mulliken charges:
               1
     1  O   -0.726034
     2  H    0.384656
     3  H    0.384657
     4  O   -0.792898
     5  H    0.396398
     6  H    0.396398
     7  H   -0.021589
     8  H   -0.021590
 Sum of Mulliken charges =  -0.00000
 Mulliken charges with hydrogens summed into heavy atoms:
               1
     1  O    0.000101
     4  O   -0.000101
 Electronic spatial extent (au):  <R**2>=            449.1430
 Charge=             -0.0000 electrons
 Dipole moment (field-independent basis, Debye):
    X=             -0.0000    Y=             -0.5237    Z=              0.0000  Tot=              0.5237
 Quadrupole moment (field-independent basis, Debye-Ang):
   XX=            -10.2209   YY=              8.6567   ZZ=            -16.7844
   XY=              0.0000   XZ=              0.0000   YZ=             -0.0000
 Traceless Quadrupole moment (field-independent basis, Debye-Ang):
   XX=             -4.1047   YY=             14.7729   ZZ=            -10.6682
   XY=              0.0000   XZ=              0.0000   YZ=             -0.0000
 Octapole moment (field-independent basis, Debye-Ang**2):
  XXX=             -0.0000  YYY=             15.1673  ZZZ=             -0.0000  XYY=             -0.0000
  XXY=              1.3764  XXZ=             -0.0000  XZZ=             -0.0000  YZZ=              0.7029
  YYZ=             -0.0000  XYZ=              0.0000
 Hexadecapole moment (field-independent basis, Debye-Ang**3):
 XXXX=            -15.9952 YYYY=           -183.7761 ZZZZ=            -13.0048 XXXY=              0.0000
 XXXZ=             -0.0000 YYYX=              0.0000 YYYZ=             -0.0000 ZZZX=             -0.0000
 ZZZY=              0.0000 XXYY=            -41.2953 XXZZ=             -5.3917 YYZZ=            -87.6501
 XXYZ=              0.0000 YYXZ=              0.0000 ZZXY=             -0.0000
 N-N= 4.021355497353D+01 E-N=-4.441974904053D+02  KE= 1.536527073577D+02
 Symmetry A'   KE= 1.445424332542D+02
 Symmetry A"   KE= 9.110274103494D+00
 1\1\GINC-NSCC-N3\Scan\RHF\6-31G\H6O2\JKIM22\16-Oct-2019\1\\# opt=(Z-ma
 trix) hf/6-31g\\2H2O_H2_dummy_input\\0,1\O\H,1,B1\H,1,B2,2,A2\O,1,B3,2
 ,A3,3,D3,0\H,4,B4,1,A4,2,D4,0\H,4,B5,1,A5,2,D5,0\X,1,B6,2,A6,3,D6,0\H,
 7,B7,1,A7,2,D7,0\H,7,B8,1,A8,2,D8,0\\B1=0.97,s,-1000,0.\B2=0.97,s,-100
 0,0.\A2=109.47122063,s,-1000,0.\B3=4.6,s,-1000,0.\A3=125.2645,s,-1000,
 0.\D3=180.,s,-1000,0.\B4=0.97,s,-1000,0.\A4=125.2645,s,-1000,0.\D4=0.,
 s,-1000,0.\B5=0.97,s,-1000,0.\A5=125.2645,s,-1000,0.\D5=180.,s,-1000,0
 .\B6=1.3,s,10,-0.1\A6=125.2645,s,-1000,0.\D6=180.,s,-1000,0.\B7=0.3649
 8,s,-1000,0.\A7=90.,s,-1000,0.\D7=0.,s,-1000,0.\B8=0.36498,s,-1000,0.\
 A8=90.,s,-1000,0.\D8=180.,s,-1000,0.\\Version=ES64L-G16RevA.03\State=1
 -A'\HF=-153.0763734,-153.0755479,-153.0729857,-153.0684234,-153.061402
 9,-153.0512414,-153.0369896,-153.0173826,-152.9908021,-152.9552988,-15
 2.9087694\RMSD=2.001e-09,2.806e-09,5.846e-09,1.595e-09,2.093e-09,2.929
 e-09,4.130e-09,5.761e-09,8.113e-09,2.710e-09,6.150e-09\PG=CS [SG(H6O2)
 ]\\@


 WHEN ALL ELSE FAILS, LOOK AT THE SCHRODINGER EQUATION.
     -- RUSSELL T. PACK, APRIL 1978
 Job cpu time:       0 days  0 hours  0 minutes 12.8 seconds.
 Elapsed time:       0 days  0 hours  0 minutes 12.5 seconds.
 File lengths (MBytes):  RWF=      6 Int=      0 D2E=      0 Chk=      2 Scr=      1
 Normal termination of Gaussian 16 at Wed Oct 16 23:46:59 2019.
