 Entering Gaussian System, Link 0=g16
 Input=2H2_H2_dummy_input_4_reverse.com
 Output=2H2_H2_dummy_input_4_reverse.log
 Initial command:
 /export/local/g16/l1.exe "/var/tmp/Gau-40028.inp" -scrdir="/var/tmp/"
 Entering Link 1 = /export/local/g16/l1.exe PID=     40029.
  
 Copyright (c) 1988,1990,1992,1993,1995,1998,2003,2009,2016,
            Gaussian, Inc.  All Rights Reserved.
  
 This is part of the Gaussian(R) 16 program.  It is based on
 the Gaussian(R) 09 system (copyright 2009, Gaussian, Inc.),
 the Gaussian(R) 03 system (copyright 2003, Gaussian, Inc.),
 the Gaussian(R) 98 system (copyright 1998, Gaussian, Inc.),
 the Gaussian(R) 94 system (copyright 1995, Gaussian, Inc.),
 the Gaussian 92(TM) system (copyright 1992, Gaussian, Inc.),
 the Gaussian 90(TM) system (copyright 1990, Gaussian, Inc.),
 the Gaussian 88(TM) system (copyright 1988, Gaussian, Inc.),
 the Gaussian 86(TM) system (copyright 1986, Carnegie Mellon
 University), and the Gaussian 82(TM) system (copyright 1983,
 Carnegie Mellon University). Gaussian is a federally registered
 trademark of Gaussian, Inc.
  
 This software contains proprietary and confidential information,
 including trade secrets, belonging to Gaussian, Inc.
  
 This software is provided under written license and may be
 used, copied, transmitted, or stored only in accord with that
 written license.
  
 The following legend is applicable only to US Government
 contracts under FAR:
  
                    RESTRICTED RIGHTS LEGEND
  
 Use, reproduction and disclosure by the US Government is
 subject to restrictions as set forth in subparagraphs (a)
 and (c) of the Commercial Computer Software - Restricted
 Rights clause in FAR 52.227-19.
  
 Gaussian, Inc.
 340 Quinnipiac St., Bldg. 40, Wallingford CT 06492
  
  
 ---------------------------------------------------------------
 Warning -- This program may not be used in any manner that
 competes with the business of Gaussian, Inc. or will provide
 assistance to any competitor of Gaussian, Inc.  The licensee
 of this program is prohibited from giving any competitor of
 Gaussian, Inc. access to this program.  By using this program,
 the user acknowledges that Gaussian, Inc. is engaged in the
 business of creating and licensing software in the field of
 computational chemistry and represents and warrants to the
 licensee that it is not a competitor of Gaussian, Inc. and that
 it will not use this program in any manner prohibited above.
 ---------------------------------------------------------------
  

 Cite this work as:
 Gaussian 16, Revision A.03,
 M. J. Frisch, G. W. Trucks, H. B. Schlegel, G. E. Scuseria, 
 M. A. Robb, J. R. Cheeseman, G. Scalmani, V. Barone, 
 G. A. Petersson, H. Nakatsuji, X. Li, M. Caricato, A. V. Marenich, 
 J. Bloino, B. G. Janesko, R. Gomperts, B. Mennucci, H. P. Hratchian, 
 J. V. Ortiz, A. F. Izmaylov, J. L. Sonnenberg, D. Williams-Young, 
 F. Ding, F. Lipparini, F. Egidi, J. Goings, B. Peng, A. Petrone, 
 T. Henderson, D. Ranasinghe, V. G. Zakrzewski, J. Gao, N. Rega, 
 G. Zheng, W. Liang, M. Hada, M. Ehara, K. Toyota, R. Fukuda, 
 J. Hasegawa, M. Ishida, T. Nakajima, Y. Honda, O. Kitao, H. Nakai, 
 T. Vreven, K. Throssell, J. A. Montgomery, Jr., J. E. Peralta, 
 F. Ogliaro, M. J. Bearpark, J. J. Heyd, E. N. Brothers, K. N. Kudin, 
 V. N. Staroverov, T. A. Keith, R. Kobayashi, J. Normand, 
 K. Raghavachari, A. P. Rendell, J. C. Burant, S. S. Iyengar, 
 J. Tomasi, M. Cossi, J. M. Millam, M. Klene, C. Adamo, R. Cammi, 
 J. W. Ochterski, R. L. Martin, K. Morokuma, O. Farkas, 
 J. B. Foresman, and D. J. Fox, Gaussian, Inc., Wallingford CT, 2016.
 
 ******************************************
 Gaussian 16:  ES64L-G16RevA.03 25-Dec-2016
                 8-Jul-2020 
 ******************************************
 %chk=2H2_H2_dummy_input_4_reversed.chk
 %nprocshared=12
 Will use up to   12 processors via shared memory.
 ---------------
 # scan hf/6-31g
 ---------------
 1/38=1,60=1,172=1/1,8;
 2/12=2,17=6,18=5,29=3,40=1/2;
 3/5=1,6=6,11=9,25=1,30=1/1,2,3;
 4//1;
 5/5=2,38=5/2;
 6/7=2,8=2,9=2,10=2,18=1,28=1/1;
 1/60=1/8(1);
 99/9=1/99;
 2/29=3/2;
 3/5=1,6=6,11=9,25=1,30=1/1,2,3;
 4/5=5,16=3,69=1/1;
 5/5=2,38=5/2;
 1/60=1/8(-4);
 99/9=1/99;
 -----------------------------
 2H2_H2_dummy_input_4_reversed
 -----------------------------
 Symbolic Z-matrix:
 Charge =  0 Multiplicity = 1
 O
 H                    1    B1
 H                    1    B2       2    A1
 O                    1    B3       2    A2       3    D1       0
 H                    4    B4       1    A3       2    D2       0
 H                    4    B5       1    A4       2    D3       0
 X                    1    B6       2    A5       3    D4       0
 H                    7    B7       1    A6       2    D5       0
 H                    7    B8       1    A7       2    D6       0
       Variables:
  B1                    0.97                     
  B2                    0.97                     
  A1                  109.471                    
  B3                    4.6                      
  A2                   54.7355                   
  D1                  180.                       
  B4                    0.97                     
  A3                   54.7355                   
  D2                    0.                       
  B5                    0.97                     
  A4                   54.7355                   
  D3                  180.                       
  B6                    2.3    Scan 18    0.03889
  A5                   54.7355 Scan 18  -10.     
  D4                  180.                       
  B7                    0.36498                  
  A6                   90.                       
  D5                    0.                       
  B8                    0.36498                  
  A7                   90.                       
  D6                  180.                       
 
     1 tetrahedral angles replaced.
    1 tetrahedral angles replaced.
 Scan the potential surface.
 Variable   Value     No. Steps Step-Size
 -------- ----------- --------- ---------
    13       2.300000      18      0.0389
    14      54.735500      18    -10.0000
 A total of    361 points will be computed.
 ---------------------------------------------------------------------------------------------------
                            Z-MATRIX (ANGSTROMS AND DEGREES)
   CD    Cent   Atom    N1       Length/X        N2       Alpha/Y        N3        Beta/Z          J
 ---------------------------------------------------------------------------------------------------
      1      1  O 
      2      2  H        1   0.970000(     1)
      3      3  H        1   0.970000(     2)      2  109.471(     9)
      4      4  O        1   4.600000(     3)      2   54.736(    10)      3  180.000(    16)      0
      5      5  H        4   0.970000(     4)      1   54.736(    11)      2    0.000(    17)      0
      6      6  H        4   0.970000(     5)      1   54.736(    12)      2  180.000(    18)      0
      7         X        1   2.300000(     6)      2   54.736(    13)      3  180.000(    19)      0
      8      7  H        7   0.364980(     7)      1   90.000(    14)      2    0.000(    20)      0
      9      8  H        7   0.364980(     8)      1   90.000(    15)      2  180.000(    21)      0
 ---------------------------------------------------------------------------------------------------
                         Z-Matrix orientation:                         
 ---------------------------------------------------------------------
 Center     Atomic      Atomic             Coordinates (Angstroms)
 Number     Number       Type             X           Y           Z
 ---------------------------------------------------------------------
      1          8           0        0.000000    0.000000    0.000000
      2          1           0        0.000000    0.000000    0.970000
      3          1           0        0.914525    0.000000   -0.323333
      4          8           0       -3.755879   -0.000000    2.655818
      5          1           0       -2.841353   -0.000000    2.979148
      6          1           0       -3.755879   -0.000000    1.685818
      7         -1           0       -1.877940   -0.000000    1.327909
      8          1           0       -1.667218   -0.000000    1.625914
      9          1           0       -2.088661   -0.000000    1.029905
 ---------------------------------------------------------------------
                    Distance matrix (angstroms):
                    1          2          3          4          5
     1  O    0.000000
     2  H    0.970000   0.000000
     3  H    0.970000   1.584003   0.000000
     4  O    4.600000   4.116869   5.539677   0.000000
     5  H    4.116869   3.479937   5.001300   0.970000   0.000000
     6  H    4.116869   3.823483   5.084227   0.970000   1.584001
     7  X    2.300000   1.911742   3.244142   2.300000   1.911742
     8  H    2.328779   1.791602   3.234959   2.328779   1.791602
     9  H    2.328779   2.089520   3.293992   2.328779   2.089520
                    6          7          8          9
     6  H    0.000000
     7  X    1.911742   0.000000
     8  H    2.089520   0.364980   0.000000
     9  H    1.791602   0.364980   0.729960   0.000000
 Stoichiometry    H6O2
 Framework group  CS[SG(H6O2)]
 Deg. of freedom    13
 Full point group                 CS      NOp   2
 Largest Abelian subgroup         CS      NOp   2
 Largest concise Abelian subgroup C1      NOp   1
                         Standard orientation:                         
 ---------------------------------------------------------------------
 Center     Atomic      Atomic             Coordinates (Angstroms)
 Number     Number       Type             X           Y           Z
 ---------------------------------------------------------------------
      1          8           0        0.048000    2.232118   -0.000000
      2          1           0       -0.744000    1.672086   -0.000000
      3          1           0       -0.216002    3.165500   -0.000000
      4          8           0        0.048000   -2.367882    0.000000
      5          1           0       -0.744000   -1.807851    0.000000
      6          1           0        0.840001   -1.807851    0.000000
      7          1           0       -0.316980   -0.067882   -0.000000
      8          1           0        0.412980   -0.067882    0.000000
 ---------------------------------------------------------------------
 Rotational constants (GHZ):         231.8893648           2.6756215           2.6451014
 Standard basis: 6-31G (6D, 7F)
 There are    26 symmetry adapted cartesian basis functions of A'  symmetry.
 There are     4 symmetry adapted cartesian basis functions of A"  symmetry.
 There are    26 symmetry adapted basis functions of A'  symmetry.
 There are     4 symmetry adapted basis functions of A"  symmetry.
    30 basis functions,    68 primitive gaussians,    30 cartesian basis functions
    11 alpha electrons       11 beta electrons
       nuclear repulsion energy        39.8040028333 Hartrees.
 NAtoms=    8 NActive=    8 NUniq=    8 SFac= 1.00D+00 NAtFMM=   60 NAOKFM=F Big=F
 Integral buffers will be    131072 words long.
 Raffenetti 1 integral format.
 Two-electron integral symmetry is turned on.
 One-electron integrals computed using PRISM.
 NBasis=    30 RedAO= T EigKep=  4.16D-02  NBF=    26     4
 NBsUse=    30 1.00D-06 EigRej= -1.00D+00 NBFU=    26     4
 ExpMin= 1.61D-01 ExpMax= 5.48D+03 ExpMxC= 8.25D+02 IAcc=3 IRadAn=         5 AccDes= 0.00D+00
 Harris functional with IExCor=  205 and IRadAn=       5 diagonalized for initial guess.
 HarFok:  IExCor=  205 AccDes= 0.00D+00 IRadAn=         5 IDoV= 1 UseB2=F ITyADJ=14
 ICtDFT=  3500011 ScaDFX=  1.000000  1.000000  1.000000  1.000000
 FoFCou: FMM=F IPFlag=           0 FMFlag=      100000 FMFlg1=           0
         NFxFlg=           0 DoJE=T BraDBF=F KetDBF=T FulRan=T
         wScrn=  0.000000 ICntrl=       500 IOpCl=  0 I1Cent=   200000004 NGrid=           0
         NMat0=    1 NMatS0=      1 NMatT0=    0 NMatD0=    1 NMtDS0=    0 NMtDT0=    0
 Petite list used in FoFCou.
 Initial guess orbital symmetries:
       Occupied  (A') (A') (A') (A') (A') (A') (A') (A') (A') (A")
                 (A")
       Virtual   (A') (A') (A') (A') (A') (A') (A') (A") (A") (A')
                 (A') (A') (A') (A') (A') (A') (A') (A') (A')
 The electronic state of the initial guess is 1-A'.
 Keep R1 ints in memory in symmetry-blocked form, NReq=2533278.
 Requested convergence on RMS density matrix=1.00D-08 within 128 cycles.
 Requested convergence on MAX density matrix=1.00D-06.
 Requested convergence on             energy=1.00D-06.
 No special actions if energy rises.
 SCF Done:  E(RHF) =  -153.072716615     A.U. after   11 cycles
            NFock= 11  Conv=0.11D-08     -V/T= 1.9997

 **********************************************************************

            Population analysis using the SCF density.

 **********************************************************************

 Orbital symmetries:
       Occupied  (A') (A') (A') (A') (A') (A') (A') (A') (A') (A")
                 (A")
       Virtual   (A') (A') (A') (A') (A') (A') (A') (A') (A') (A")
                 (A') (A") (A') (A') (A') (A') (A') (A') (A')
 The electronic state is 1-A'.
 Alpha  occ. eigenvalues --  -20.56991 -20.54737  -1.35677  -1.33866  -0.73744
 Alpha  occ. eigenvalues --   -0.70463  -0.64031  -0.56143  -0.52221  -0.51018
 Alpha  occ. eigenvalues --   -0.48995
 Alpha virt. eigenvalues --    0.16890   0.21079   0.24316   0.30591   0.41825
 Alpha virt. eigenvalues --    0.86370   1.08008   1.10615   1.13941   1.15411
 Alpha virt. eigenvalues --    1.17161   1.17327   1.20454   1.32728   1.39215
 Alpha virt. eigenvalues --    1.42767   1.50696   1.69045   1.72215
          Condensed to atoms (all electrons):
               1          2          3          4          5          6
     1  O    8.322373   0.250019   0.256901   0.000006  -0.000033  -0.000059
     2  H    0.250019   0.373843  -0.025375  -0.000100  -0.000113   0.000005
     3  H    0.256901  -0.025375   0.361235  -0.000000   0.000001   0.000001
     4  O    0.000006  -0.000100  -0.000000   8.312857   0.266945   0.266262
     5  H   -0.000033  -0.000113   0.000001   0.266945   0.358274  -0.035553
     6  H   -0.000059   0.000005   0.000001   0.266262  -0.035553   0.355452
     7  H   -0.012533  -0.002690   0.000991  -0.013398   0.000810  -0.000085
     8  H   -0.005647  -0.007860   0.000603  -0.011887  -0.003721   0.004011
               7          8
     1  O   -0.012533  -0.005647
     2  H   -0.002690  -0.007860
     3  H    0.000991   0.000603
     4  O   -0.013398  -0.011887
     5  H    0.000810  -0.003721
     6  H   -0.000085   0.004011
     7  H    0.708684   0.411971
     8  H    0.411971   0.528337
 Mulliken charges:
               1
     1  O   -0.811027
     2  H    0.412271
     3  H    0.405643
     4  O   -0.820686
     5  H    0.413390
     6  H    0.409965
     7  H   -0.093750
     8  H    0.084193
 Sum of Mulliken charges =  -0.00000
 Mulliken charges with hydrogens summed into heavy atoms:
               1
     1  O   -0.002670
     4  O    0.002670
 Electronic spatial extent (au):  <R**2>=            415.2429
 Charge=              0.0000 electrons
 Dipole moment (field-independent basis, Debye):
    X=             -2.1549    Y=              3.5195    Z=             -0.0000  Tot=              4.1268
 Quadrupole moment (field-independent basis, Debye-Ang):
   XX=            -11.2416   YY=            -20.5026   ZZ=            -16.4644
   XY=             -4.6291   XZ=              0.0000   YZ=              0.0000
 Traceless Quadrupole moment (field-independent basis, Debye-Ang):
   XX=              4.8279   YY=             -4.4331   ZZ=             -0.3949
   XY=             -4.6291   XZ=              0.0000   YZ=              0.0000
 Octapole moment (field-independent basis, Debye-Ang**2):
  XXX=             -1.1761  YYY=             70.5735  ZZZ=             -0.0000  XYY=            -10.8244
  XXY=             -3.0588  XXZ=              0.0000  XZZ=             -0.3476  YZZ=              0.6284
  YYZ=             -0.0000  XYZ=              0.0000
 Hexadecapole moment (field-independent basis, Debye-Ang**3):
 XXXX=            -14.0141 YYYY=           -419.3422 ZZZZ=            -12.2576 XXXY=              0.3710
 XXXZ=             -0.0000 YYYX=            -18.8866 YYYZ=              0.0000 ZZZX=             -0.0000
 ZZZY=              0.0000 XXYY=            -61.9008 XXZZ=             -4.8070 YYZZ=            -80.1214
 XXYZ=              0.0000 YYXZ=              0.0000 ZZXY=              0.8083
 N-N= 3.980400283335D+01 E-N=-4.429145692638D+02  KE= 1.531188551189D+02
 Symmetry A'   KE= 1.440183242527D+02
 Symmetry A"   KE= 9.100530866228D+00
 Variable Step   Value    
 -------- ---- -----------
    13       1    4.419862
    14       0    0.955315
 ---------------------------------------------------------------------------------------------------
                            Z-MATRIX (ANGSTROMS AND DEGREES)
   CD    Cent   Atom    N1       Length/X        N2       Alpha/Y        N3        Beta/Z          J
 ---------------------------------------------------------------------------------------------------
      1      1  O 
      2      2  H        1   0.970000(     1)
      3      3  H        1   0.970000(     2)      2  109.471(     9)
      4      4  O        1   4.600000(     3)      2   54.736(    10)      3  180.000(    16)      0
      5      5  H        4   0.970000(     4)      1   54.736(    11)      2    0.000(    17)      0
      6      6  H        4   0.970000(     5)      1   54.736(    12)      2  180.000(    18)      0
      7         X        1   2.338890(     6)      2   54.736(    13)      3  180.000(    19)      0
      8      7  H        7   0.364980(     7)      1   90.000(    14)      2    0.000(    20)      0
      9      8  H        7   0.364980(     8)      1   90.000(    15)      2  180.000(    21)      0
 ---------------------------------------------------------------------------------------------------
                         Z-Matrix orientation:                         
 ---------------------------------------------------------------------
 Center     Atomic      Atomic             Coordinates (Angstroms)
 Number     Number       Type             X           Y           Z
 ---------------------------------------------------------------------
      1          8           0        0.000000    0.000000    0.000000
      2          1           0        0.000000    0.000000    0.970000
      3          1           0        0.914525    0.000000   -0.323333
      4          8           0       -3.755879   -0.000000    2.655818
      5          1           0       -2.841353   -0.000000    2.979148
      6          1           0       -3.755879   -0.000000    1.685818
      7         -1           0       -1.909693   -0.000000    1.350362
      8          1           0       -1.698971   -0.000000    1.648367
      9          1           0       -2.120415   -0.000000    1.052358
 ---------------------------------------------------------------------
                    Distance matrix (angstroms):
                    1          2          3          4          5
     1  O    0.000000
     2  H    0.970000   0.000000
     3  H    0.970000   1.584003   0.000000
     4  O    4.600000   4.116869   5.539677   0.000000
     5  H    4.116869   3.479937   5.001300   0.970000   0.000000
     6  H    4.116869   3.823483   5.084227   0.970000   1.584001
     7  X    2.338890   1.947204   3.282905   2.261110   1.876415
     8  H    2.367196   1.829395   3.273830   2.290377   1.753857
     9  H    2.367196   2.122014   3.332174   2.290377   2.057249
                    6          7          8          9
     6  H    0.000000
     7  X    1.876415   0.000000
     8  H    2.057249   0.364980   0.000000
     9  H    1.753857   0.364980   0.729960   0.000000
 Stoichiometry    H6O2
 Framework group  CS[SG(H6O2)]
 Deg. of freedom    13
 Full point group                 CS      NOp   2
 Largest Abelian subgroup         CS      NOp   2
 Largest concise Abelian subgroup C1      NOp   1
                         Standard orientation:                         
 ---------------------------------------------------------------------
 Center     Atomic      Atomic             Coordinates (Angstroms)
 Number     Number       Type             X           Y           Z
 ---------------------------------------------------------------------
      1          8           0        0.048000    2.235653   -0.000000
      2          1           0       -0.744000    1.675622   -0.000000
      3          1           0       -0.216002    3.169035   -0.000000
      4          8           0        0.048000   -2.364347    0.000000
      5          1           0       -0.744000   -1.804316    0.000000
      6          1           0        0.840001   -1.804316    0.000000
      7          1           0       -0.316980   -0.103237    0.000000
      8          1           0        0.412980   -0.103237    0.000000
 ---------------------------------------------------------------------
 Rotational constants (GHZ):         231.8947495           2.6754920           2.6449755
 Standard basis: 6-31G (6D, 7F)
 There are    26 symmetry adapted cartesian basis functions of A'  symmetry.
 There are     4 symmetry adapted cartesian basis functions of A"  symmetry.
 There are    26 symmetry adapted basis functions of A'  symmetry.
 There are     4 symmetry adapted basis functions of A"  symmetry.
    30 basis functions,    68 primitive gaussians,    30 cartesian basis functions
    11 alpha electrons       11 beta electrons
       nuclear repulsion energy        39.8128521349 Hartrees.
 NAtoms=    8 NActive=    8 NUniq=    8 SFac= 1.00D+00 NAtFMM=   60 NAOKFM=F Big=F
 Integral buffers will be    131072 words long.
 Raffenetti 1 integral format.
 Two-electron integral symmetry is turned on.
 One-electron integrals computed using PRISM.
 NBasis=    30 RedAO= T EigKep=  4.13D-02  NBF=    26     4
 NBsUse=    30 1.00D-06 EigRej= -1.00D+00 NBFU=    26     4
 Initial guess from the checkpoint file:  "2H2_H2_dummy_input_4_reversed.chk"
 B after Tr=     0.000000    0.000000    0.000000
         Rot=    1.000000    0.000000    0.000000    0.000018 Ang=   0.00 deg.
 Initial guess orbital symmetries:
       Occupied  (A') (A') (A') (A') (A') (A') (A') (A') (A') (A")
                 (A")
       Virtual   (A') (A') (A') (A') (A') (A') (A') (A') (A') (A")
                 (A') (A") (A') (A') (A') (A') (A') (A') (A')
 ExpMin= 1.61D-01 ExpMax= 5.48D+03 ExpMxC= 8.25D+02 IAcc=2 IRadAn=         4 AccDes= 0.00D+00
 Harris functional with IExCor=  205 and IRadAn=       4 diagonalized for initial guess.
 HarFok:  IExCor=  205 AccDes= 0.00D+00 IRadAn=         4 IDoV= 1 UseB2=F ITyADJ=14
 ICtDFT=  3500011 ScaDFX=  1.000000  1.000000  1.000000  1.000000
 FoFCou: FMM=F IPFlag=           0 FMFlag=      100000 FMFlg1=           0
         NFxFlg=           0 DoJE=T BraDBF=F KetDBF=T FulRan=T
         wScrn=  0.000000 ICntrl=       500 IOpCl=  0 I1Cent=   200000004 NGrid=           0
         NMat0=    1 NMatS0=      1 NMatT0=    0 NMatD0=    1 NMtDS0=    0 NMtDT0=    0
 Petite list used in FoFCou.
 Keep R1 ints in memory in symmetry-blocked form, NReq=2533326.
 Requested convergence on RMS density matrix=1.00D-08 within 128 cycles.
 Requested convergence on MAX density matrix=1.00D-06.
 Requested convergence on             energy=1.00D-06.
 No special actions if energy rises.
 SCF Done:  E(RHF) =  -153.071485079     A.U. after    9 cycles
            NFock=  9  Conv=0.17D-08     -V/T= 1.9997
 Variable Step   Value    
 -------- ---- -----------
    13       2    4.493353
    14       0    0.955315
 ---------------------------------------------------------------------------------------------------
                            Z-MATRIX (ANGSTROMS AND DEGREES)
   CD    Cent   Atom    N1       Length/X        N2       Alpha/Y        N3        Beta/Z          J
 ---------------------------------------------------------------------------------------------------
      1      1  O 
      2      2  H        1   0.970000(     1)
      3      3  H        1   0.970000(     2)      2  109.471(     9)
      4      4  O        1   4.600000(     3)      2   54.736(    10)      3  180.000(    16)      0
      5      5  H        4   0.970000(     4)      1   54.736(    11)      2    0.000(    17)      0
      6      6  H        4   0.970000(     5)      1   54.736(    12)      2  180.000(    18)      0
      7         X        1   2.377780(     6)      2   54.736(    13)      3  180.000(    19)      0
      8      7  H        7   0.364980(     7)      1   90.000(    14)      2    0.000(    20)      0
      9      8  H        7   0.364980(     8)      1   90.000(    15)      2  180.000(    21)      0
 ---------------------------------------------------------------------------------------------------
                         Z-Matrix orientation:                         
 ---------------------------------------------------------------------
 Center     Atomic      Atomic             Coordinates (Angstroms)
 Number     Number       Type             X           Y           Z
 ---------------------------------------------------------------------
      1          8           0        0.000000    0.000000    0.000000
      2          1           0        0.000000    0.000000    0.970000
      3          1           0        0.914525    0.000000   -0.323333
      4          8           0       -3.755879   -0.000000    2.655818
      5          1           0       -2.841353   -0.000000    2.979148
      6          1           0       -3.755879   -0.000000    1.685818
      7         -1           0       -1.941447   -0.000000    1.372816
      8          1           0       -1.730725   -0.000000    1.670820
      9          1           0       -2.152168   -0.000000    1.074811
 ---------------------------------------------------------------------
                    Distance matrix (angstroms):
                    1          2          3          4          5
     1  O    0.000000
     2  H    0.970000   0.000000
     3  H    0.970000   1.584003   0.000000
     4  O    4.600000   4.116869   5.539677   0.000000
     5  H    4.116869   3.479937   5.001300   0.970000   0.000000
     6  H    4.116869   3.823483   5.084227   0.970000   1.584001
     7  X    2.377780   1.982795   3.321670   2.222220   1.841232
     8  H    2.405628   1.867232   3.312702   2.251993   1.716164
     9  H    2.405628   2.154719   3.370373   2.251993   2.025210
                    6          7          8          9
     6  H    0.000000
     7  X    1.841232   0.000000
     8  H    2.025210   0.364980   0.000000
     9  H    1.716164   0.364980   0.729960   0.000000
 Stoichiometry    H6O2
 Framework group  CS[SG(H6O2)]
 Deg. of freedom    13
 Full point group                 CS      NOp   2
 Largest Abelian subgroup         CS      NOp   2
 Largest concise Abelian subgroup C1      NOp   1
                         Standard orientation:                         
 ---------------------------------------------------------------------
 Center     Atomic      Atomic             Coordinates (Angstroms)
 Number     Number       Type             X           Y           Z
 ---------------------------------------------------------------------
      1          8           0        0.048000    2.239188   -0.000000
      2          1           0       -0.744000    1.679157    0.000000
      3          1           0       -0.216002    3.172571    0.000000
      4          8           0        0.048000   -2.360812   -0.000000
      5          1           0       -0.744000   -1.800780    0.000000
      6          1           0        0.840001   -1.800780   -0.000000
      7          1           0       -0.316980   -0.138592    0.000000
      8          1           0        0.412980   -0.138592   -0.000000
 ---------------------------------------------------------------------
 Rotational constants (GHZ):         231.9000533           2.6752808           2.6447698
 Standard basis: 6-31G (6D, 7F)
 There are    26 symmetry adapted cartesian basis functions of A'  symmetry.
 There are     4 symmetry adapted cartesian basis functions of A"  symmetry.
 There are    26 symmetry adapted basis functions of A'  symmetry.
 There are     4 symmetry adapted basis functions of A"  symmetry.
    30 basis functions,    68 primitive gaussians,    30 cartesian basis functions
    11 alpha electrons       11 beta electrons
       nuclear repulsion energy        39.8267683153 Hartrees.
 NAtoms=    8 NActive=    8 NUniq=    8 SFac= 1.00D+00 NAtFMM=   60 NAOKFM=F Big=F
 Integral buffers will be    131072 words long.
 Raffenetti 1 integral format.
 Two-electron integral symmetry is turned on.
 One-electron integrals computed using PRISM.
 NBasis=    30 RedAO= T EigKep=  4.09D-02  NBF=    26     4
 NBsUse=    30 1.00D-06 EigRej= -1.00D+00 NBFU=    26     4
 Initial guess from the checkpoint file:  "2H2_H2_dummy_input_4_reversed.chk"
 B after Tr=    -0.000000   -0.000000   -0.000000
         Rot=    1.000000   -0.000000    0.000000    0.000018 Ang=   0.00 deg.
 Initial guess orbital symmetries:
       Occupied  (A') (A') (A') (A') (A') (A') (A') (A') (A') (A")
                 (A")
       Virtual   (A') (A') (A') (A') (A') (A') (A') (A') (A') (A")
                 (A') (A") (A') (A') (A') (A') (A') (A') (A')
 ExpMin= 1.61D-01 ExpMax= 5.48D+03 ExpMxC= 8.25D+02 IAcc=2 IRadAn=         4 AccDes= 0.00D+00
 Harris functional with IExCor=  205 and IRadAn=       4 diagonalized for initial guess.
 HarFok:  IExCor=  205 AccDes= 0.00D+00 IRadAn=         4 IDoV= 1 UseB2=F ITyADJ=14
 ICtDFT=  3500011 ScaDFX=  1.000000  1.000000  1.000000  1.000000
 FoFCou: FMM=F IPFlag=           0 FMFlag=      100000 FMFlg1=           0
         NFxFlg=           0 DoJE=T BraDBF=F KetDBF=T FulRan=T
         wScrn=  0.000000 ICntrl=       500 IOpCl=  0 I1Cent=   200000004 NGrid=           0
         NMat0=    1 NMatS0=      1 NMatT0=    0 NMatD0=    1 NMtDS0=    0 NMtDT0=    0
 Petite list used in FoFCou.
 Keep R1 ints in memory in symmetry-blocked form, NReq=2533326.
 Requested convergence on RMS density matrix=1.00D-08 within 128 cycles.
 Requested convergence on MAX density matrix=1.00D-06.
 Requested convergence on             energy=1.00D-06.
 No special actions if energy rises.
 SCF Done:  E(RHF) =  -153.069834757     A.U. after    9 cycles
            NFock=  9  Conv=0.17D-08     -V/T= 1.9996
 Variable Step   Value    
 -------- ---- -----------
    13       3    4.566844
    14       0    0.955315
 ---------------------------------------------------------------------------------------------------
                            Z-MATRIX (ANGSTROMS AND DEGREES)
   CD    Cent   Atom    N1       Length/X        N2       Alpha/Y        N3        Beta/Z          J
 ---------------------------------------------------------------------------------------------------
      1      1  O 
      2      2  H        1   0.970000(     1)
      3      3  H        1   0.970000(     2)      2  109.471(     9)
      4      4  O        1   4.600000(     3)      2   54.736(    10)      3  180.000(    16)      0
      5      5  H        4   0.970000(     4)      1   54.736(    11)      2    0.000(    17)      0
      6      6  H        4   0.970000(     5)      1   54.736(    12)      2  180.000(    18)      0
      7         X        1   2.416670(     6)      2   54.736(    13)      3  180.000(    19)      0
      8      7  H        7   0.364980(     7)      1   90.000(    14)      2    0.000(    20)      0
      9      8  H        7   0.364980(     8)      1   90.000(    15)      2  180.000(    21)      0
 ---------------------------------------------------------------------------------------------------
                         Z-Matrix orientation:                         
 ---------------------------------------------------------------------
 Center     Atomic      Atomic             Coordinates (Angstroms)
 Number     Number       Type             X           Y           Z
 ---------------------------------------------------------------------
      1          8           0        0.000000    0.000000    0.000000
      2          1           0        0.000000    0.000000    0.970000
      3          1           0        0.914525    0.000000   -0.323333
      4          8           0       -3.755879   -0.000000    2.655818
      5          1           0       -2.841353   -0.000000    2.979148
      6          1           0       -3.755879   -0.000000    1.685818
      7         -1           0       -1.973200   -0.000000    1.395269
      8          1           0       -1.762478   -0.000000    1.693273
      9          1           0       -2.183922   -0.000000    1.097264
 ---------------------------------------------------------------------
                    Distance matrix (angstroms):
                    1          2          3          4          5
     1  O    0.000000
     2  H    0.970000   0.000000
     3  H    0.970000   1.584003   0.000000
     4  O    4.600000   4.116869   5.539677   0.000000
     5  H    4.116869   3.479937   5.001300   0.970000   0.000000
     6  H    4.116869   3.823483   5.084227   0.970000   1.584001
     7  X    2.416670   2.018507   3.360439   2.183330   1.806201
     8  H    2.444075   1.905113   3.351574   2.213626   1.678525
     9  H    2.444075   2.187627   3.408588   2.213626   1.993415
                    6          7          8          9
     6  H    0.000000
     7  X    1.806201   0.000000
     8  H    1.993415   0.364980   0.000000
     9  H    1.678525   0.364980   0.729960   0.000000
 Stoichiometry    H6O2
 Framework group  CS[SG(H6O2)]
 Deg. of freedom    13
 Full point group                 CS      NOp   2
 Largest Abelian subgroup         CS      NOp   2
 Largest concise Abelian subgroup C1      NOp   1
                         Standard orientation:                         
 ---------------------------------------------------------------------
 Center     Atomic      Atomic             Coordinates (Angstroms)
 Number     Number       Type             X           Y           Z
 ---------------------------------------------------------------------
      1          8           0        0.048000    2.242724   -0.000000
      2          1           0       -0.744000    1.682693   -0.000000
      3          1           0       -0.216002    3.176106   -0.000000
      4          8           0        0.048000   -2.357276    0.000000
      5          1           0       -0.744000   -1.797245    0.000000
      6          1           0        0.840001   -1.797245    0.000000
      7          1           0       -0.316980   -0.173946   -0.000000
      8          1           0        0.412980   -0.173946    0.000000
 ---------------------------------------------------------------------
 Rotational constants (GHZ):         231.9052756           2.6749878           2.6444842
 Standard basis: 6-31G (6D, 7F)
 There are    26 symmetry adapted cartesian basis functions of A'  symmetry.
 There are     4 symmetry adapted cartesian basis functions of A"  symmetry.
 There are    26 symmetry adapted basis functions of A'  symmetry.
 There are     4 symmetry adapted basis functions of A"  symmetry.
    30 basis functions,    68 primitive gaussians,    30 cartesian basis functions
    11 alpha electrons       11 beta electrons
       nuclear repulsion energy        39.8457883399 Hartrees.
 NAtoms=    8 NActive=    8 NUniq=    8 SFac= 1.00D+00 NAtFMM=   60 NAOKFM=F Big=F
 Integral buffers will be    131072 words long.
 Raffenetti 1 integral format.
 Two-electron integral symmetry is turned on.
 One-electron integrals computed using PRISM.
 NBasis=    30 RedAO= T EigKep=  4.04D-02  NBF=    26     4
 NBsUse=    30 1.00D-06 EigRej= -1.00D+00 NBFU=    26     4
 Initial guess from the checkpoint file:  "2H2_H2_dummy_input_4_reversed.chk"
 B after Tr=     0.000000   -0.000000   -0.000000
         Rot=    1.000000   -0.000000    0.000000    0.000018 Ang=   0.00 deg.
 Initial guess orbital symmetries:
       Occupied  (A') (A') (A') (A') (A') (A') (A') (A') (A') (A")
                 (A")
       Virtual   (A') (A') (A') (A') (A') (A') (A') (A') (A') (A")
                 (A') (A") (A') (A') (A') (A') (A') (A') (A')
 ExpMin= 1.61D-01 ExpMax= 5.48D+03 ExpMxC= 8.25D+02 IAcc=2 IRadAn=         4 AccDes= 0.00D+00
 Harris functional with IExCor=  205 and IRadAn=       4 diagonalized for initial guess.
 HarFok:  IExCor=  205 AccDes= 0.00D+00 IRadAn=         4 IDoV= 1 UseB2=F ITyADJ=14
 ICtDFT=  3500011 ScaDFX=  1.000000  1.000000  1.000000  1.000000
 FoFCou: FMM=F IPFlag=           0 FMFlag=      100000 FMFlg1=           0
         NFxFlg=           0 DoJE=T BraDBF=F KetDBF=T FulRan=T
         wScrn=  0.000000 ICntrl=       500 IOpCl=  0 I1Cent=   200000004 NGrid=           0
         NMat0=    1 NMatS0=      1 NMatT0=    0 NMatD0=    1 NMtDS0=    0 NMtDT0=    0
 Petite list used in FoFCou.
 Keep R1 ints in memory in symmetry-blocked form, NReq=2533326.
 Requested convergence on RMS density matrix=1.00D-08 within 128 cycles.
 Requested convergence on MAX density matrix=1.00D-06.
 Requested convergence on             energy=1.00D-06.
 No special actions if energy rises.
 SCF Done:  E(RHF) =  -153.067747890     A.U. after    9 cycles
            NFock=  9  Conv=0.16D-08     -V/T= 1.9996
 Variable Step   Value    
 -------- ---- -----------
    13       4    4.640336
    14       0    0.955315
 ---------------------------------------------------------------------------------------------------
                            Z-MATRIX (ANGSTROMS AND DEGREES)
   CD    Cent   Atom    N1       Length/X        N2       Alpha/Y        N3        Beta/Z          J
 ---------------------------------------------------------------------------------------------------
      1      1  O 
      2      2  H        1   0.970000(     1)
      3      3  H        1   0.970000(     2)      2  109.471(     9)
      4      4  O        1   4.600000(     3)      2   54.736(    10)      3  180.000(    16)      0
      5      5  H        4   0.970000(     4)      1   54.736(    11)      2    0.000(    17)      0
      6      6  H        4   0.970000(     5)      1   54.736(    12)      2  180.000(    18)      0
      7         X        1   2.455560(     6)      2   54.736(    13)      3  180.000(    19)      0
      8      7  H        7   0.364980(     7)      1   90.000(    14)      2    0.000(    20)      0
      9      8  H        7   0.364980(     8)      1   90.000(    15)      2  180.000(    21)      0
 ---------------------------------------------------------------------------------------------------
                         Z-Matrix orientation:                         
 ---------------------------------------------------------------------
 Center     Atomic      Atomic             Coordinates (Angstroms)
 Number     Number       Type             X           Y           Z
 ---------------------------------------------------------------------
      1          8           0        0.000000    0.000000    0.000000
      2          1           0        0.000000    0.000000    0.970000
      3          1           0        0.914525    0.000000   -0.323333
      4          8           0       -3.755879   -0.000000    2.655818
      5          1           0       -2.841353   -0.000000    2.979148
      6          1           0       -3.755879   -0.000000    1.685818
      7         -1           0       -2.004954   -0.000000    1.417722
      8          1           0       -1.794232   -0.000000    1.715727
      9          1           0       -2.215675   -0.000000    1.119718
 ---------------------------------------------------------------------
                    Distance matrix (angstroms):
                    1          2          3          4          5
     1  O    0.000000
     2  H    0.970000   0.000000
     3  H    0.970000   1.584003   0.000000
     4  O    4.600000   4.116869   5.539677   0.000000
     5  H    4.116869   3.479937   5.001300   0.970000   0.000000
     6  H    4.116869   3.823483   5.084227   0.970000   1.584001
     7  X    2.455560   2.054335   3.399210   2.144440   1.771332
     8  H    2.482536   1.943033   3.390446   2.175278   1.640944
     9  H    2.482536   2.220728   3.446817   2.175278   1.961875
                    6          7          8          9
     6  H    0.000000
     7  X    1.771332   0.000000
     8  H    1.961875   0.364980   0.000000
     9  H    1.640944   0.364980   0.729960   0.000000
 Stoichiometry    H6O2
 Framework group  CS[SG(H6O2)]
 Deg. of freedom    13
 Full point group                 CS      NOp   2
 Largest Abelian subgroup         CS      NOp   2
 Largest concise Abelian subgroup C1      NOp   1
                         Standard orientation:                         
 ---------------------------------------------------------------------
 Center     Atomic      Atomic             Coordinates (Angstroms)
 Number     Number       Type             X           Y           Z
 ---------------------------------------------------------------------
      1          8           0        0.048000    2.246259   -0.000000
      2          1           0       -0.744000    1.686228   -0.000000
      3          1           0       -0.216002    3.179642   -0.000000
      4          8           0        0.048000   -2.353741    0.000000
      5          1           0       -0.744000   -1.793709    0.000000
      6          1           0        0.840001   -1.793709    0.000000
      7          1           0       -0.316980   -0.209301    0.000000
      8          1           0        0.412980   -0.209301   -0.000000
 ---------------------------------------------------------------------
 Rotational constants (GHZ):         231.9104160           2.6746132           2.6441187
 Standard basis: 6-31G (6D, 7F)
 There are    26 symmetry adapted cartesian basis functions of A'  symmetry.
 There are     4 symmetry adapted cartesian basis functions of A"  symmetry.
 There are    26 symmetry adapted basis functions of A'  symmetry.
 There are     4 symmetry adapted basis functions of A"  symmetry.
    30 basis functions,    68 primitive gaussians,    30 cartesian basis functions
    11 alpha electrons       11 beta electrons
       nuclear repulsion energy        39.8699648240 Hartrees.
 NAtoms=    8 NActive=    8 NUniq=    8 SFac= 1.00D+00 NAtFMM=   60 NAOKFM=F Big=F
 Integral buffers will be    131072 words long.
 Raffenetti 1 integral format.
 Two-electron integral symmetry is turned on.
 One-electron integrals computed using PRISM.
 NBasis=    30 RedAO= T EigKep=  3.98D-02  NBF=    26     4
 NBsUse=    30 1.00D-06 EigRej= -1.00D+00 NBFU=    26     4
 Initial guess from the checkpoint file:  "2H2_H2_dummy_input_4_reversed.chk"
 B after Tr=     0.000000   -0.000000    0.000000
         Rot=    1.000000    0.000000    0.000000    0.000018 Ang=   0.00 deg.
 Initial guess orbital symmetries:
       Occupied  (A') (A') (A') (A') (A') (A') (A') (A') (A') (A")
                 (A")
       Virtual   (A') (A') (A') (A') (A') (A') (A') (A') (A') (A")
                 (A') (A") (A') (A') (A') (A') (A') (A') (A')
 ExpMin= 1.61D-01 ExpMax= 5.48D+03 ExpMxC= 8.25D+02 IAcc=2 IRadAn=         4 AccDes= 0.00D+00
 Harris functional with IExCor=  205 and IRadAn=       4 diagonalized for initial guess.
 HarFok:  IExCor=  205 AccDes= 0.00D+00 IRadAn=         4 IDoV= 1 UseB2=F ITyADJ=14
 ICtDFT=  3500011 ScaDFX=  1.000000  1.000000  1.000000  1.000000
 FoFCou: FMM=F IPFlag=           0 FMFlag=      100000 FMFlg1=           0
         NFxFlg=           0 DoJE=T BraDBF=F KetDBF=T FulRan=T
         wScrn=  0.000000 ICntrl=       500 IOpCl=  0 I1Cent=   200000004 NGrid=           0
         NMat0=    1 NMatS0=      1 NMatT0=    0 NMatD0=    1 NMtDS0=    0 NMtDT0=    0
 Petite list used in FoFCou.
 Keep R1 ints in memory in symmetry-blocked form, NReq=2533422.
 Requested convergence on RMS density matrix=1.00D-08 within 128 cycles.
 Requested convergence on MAX density matrix=1.00D-06.
 Requested convergence on             energy=1.00D-06.
 No special actions if energy rises.
 SCF Done:  E(RHF) =  -153.065201078     A.U. after    9 cycles
            NFock=  9  Conv=0.16D-08     -V/T= 1.9995
 Variable Step   Value    
 -------- ---- -----------
    13       5    4.713827
    14       0    0.955315
 ---------------------------------------------------------------------------------------------------
                            Z-MATRIX (ANGSTROMS AND DEGREES)
   CD    Cent   Atom    N1       Length/X        N2       Alpha/Y        N3        Beta/Z          J
 ---------------------------------------------------------------------------------------------------
      1      1  O 
      2      2  H        1   0.970000(     1)
      3      3  H        1   0.970000(     2)      2  109.471(     9)
      4      4  O        1   4.600000(     3)      2   54.736(    10)      3  180.000(    16)      0
      5      5  H        4   0.970000(     4)      1   54.736(    11)      2    0.000(    17)      0
      6      6  H        4   0.970000(     5)      1   54.736(    12)      2  180.000(    18)      0
      7         X        1   2.494450(     6)      2   54.736(    13)      3  180.000(    19)      0
      8      7  H        7   0.364980(     7)      1   90.000(    14)      2    0.000(    20)      0
      9      8  H        7   0.364980(     8)      1   90.000(    15)      2  180.000(    21)      0
 ---------------------------------------------------------------------------------------------------
                         Z-Matrix orientation:                         
 ---------------------------------------------------------------------
 Center     Atomic      Atomic             Coordinates (Angstroms)
 Number     Number       Type             X           Y           Z
 ---------------------------------------------------------------------
      1          8           0        0.000000    0.000000    0.000000
      2          1           0        0.000000    0.000000    0.970000
      3          1           0        0.914525    0.000000   -0.323333
      4          8           0       -3.755879   -0.000000    2.655818
      5          1           0       -2.841353   -0.000000    2.979148
      6          1           0       -3.755879   -0.000000    1.685818
      7         -1           0       -2.036707   -0.000000    1.440175
      8          1           0       -1.825985   -0.000000    1.738180
      9          1           0       -2.247429   -0.000000    1.142171
 ---------------------------------------------------------------------
                    Distance matrix (angstroms):
                    1          2          3          4          5
     1  O    0.000000
     2  H    0.970000   0.000000
     3  H    0.970000   1.584003   0.000000
     4  O    4.600000   4.116869   5.539677   0.000000
     5  H    4.116869   3.479937   5.001300   0.970000   0.000000
     6  H    4.116869   3.823483   5.084227   0.970000   1.584001
     7  X    2.494450   2.090273   3.437984   2.105550   1.736633
     8  H    2.521010   1.980990   3.429319   2.136949   1.603426
     9  H    2.521010   2.254014   3.485062   2.136949   1.930604
                    6          7          8          9
     6  H    0.000000
     7  X    1.736633   0.000000
     8  H    1.930604   0.364980   0.000000
     9  H    1.603426   0.364980   0.729960   0.000000
 Stoichiometry    H6O2
 Framework group  CS[SG(H6O2)]
 Deg. of freedom    13
 Full point group                 CS      NOp   2
 Largest Abelian subgroup         CS      NOp   2
 Largest concise Abelian subgroup C1      NOp   1
                         Standard orientation:                         
 ---------------------------------------------------------------------
 Center     Atomic      Atomic             Coordinates (Angstroms)
 Number     Number       Type             X           Y           Z
 ---------------------------------------------------------------------
      1          8           0        0.048000    2.249795    0.000000
      2          1           0       -0.744000    1.689764    0.000000
      3          1           0       -0.216002    3.183177    0.000000
      4          8           0        0.048000   -2.350205   -0.000000
      5          1           0       -0.744000   -1.790174   -0.000000
      6          1           0        0.840001   -1.790174   -0.000000
      7          1           0       -0.316980   -0.244655    0.000000
      8          1           0        0.412980   -0.244655   -0.000000
 ---------------------------------------------------------------------
 Rotational constants (GHZ):         231.9154740           2.6741570           2.6436735
 Standard basis: 6-31G (6D, 7F)
 There are    26 symmetry adapted cartesian basis functions of A'  symmetry.
 There are     4 symmetry adapted cartesian basis functions of A"  symmetry.
 There are    26 symmetry adapted basis functions of A'  symmetry.
 There are     4 symmetry adapted basis functions of A"  symmetry.
    30 basis functions,    68 primitive gaussians,    30 cartesian basis functions
    11 alpha electrons       11 beta electrons
       nuclear repulsion energy        39.8993663850 Hartrees.
 NAtoms=    8 NActive=    8 NUniq=    8 SFac= 1.00D+00 NAtFMM=   60 NAOKFM=F Big=F
 Integral buffers will be    131072 words long.
 Raffenetti 1 integral format.
 Two-electron integral symmetry is turned on.
 One-electron integrals computed using PRISM.
 NBasis=    30 RedAO= T EigKep=  3.92D-02  NBF=    26     4
 NBsUse=    30 1.00D-06 EigRej= -1.00D+00 NBFU=    26     4
 Initial guess from the checkpoint file:  "2H2_H2_dummy_input_4_reversed.chk"
 B after Tr=     0.000000   -0.000000   -0.000000
         Rot=    1.000000   -0.000000    0.000000    0.000018 Ang=   0.00 deg.
 Initial guess orbital symmetries:
       Occupied  (A') (A') (A') (A') (A') (A') (A') (A') (A') (A")
                 (A")
       Virtual   (A') (A') (A') (A') (A') (A') (A') (A') (A') (A")
                 (A') (A") (A') (A') (A') (A') (A') (A') (A')
 ExpMin= 1.61D-01 ExpMax= 5.48D+03 ExpMxC= 8.25D+02 IAcc=2 IRadAn=         4 AccDes= 0.00D+00
 Harris functional with IExCor=  205 and IRadAn=       4 diagonalized for initial guess.
 HarFok:  IExCor=  205 AccDes= 0.00D+00 IRadAn=         4 IDoV= 1 UseB2=F ITyADJ=14
 ICtDFT=  3500011 ScaDFX=  1.000000  1.000000  1.000000  1.000000
 FoFCou: FMM=F IPFlag=           0 FMFlag=      100000 FMFlg1=           0
         NFxFlg=           0 DoJE=T BraDBF=F KetDBF=T FulRan=T
         wScrn=  0.000000 ICntrl=       500 IOpCl=  0 I1Cent=   200000004 NGrid=           0
         NMat0=    1 NMatS0=      1 NMatT0=    0 NMatD0=    1 NMtDS0=    0 NMtDT0=    0
 Petite list used in FoFCou.
 Keep R1 ints in memory in symmetry-blocked form, NReq=2533374.
 Requested convergence on RMS density matrix=1.00D-08 within 128 cycles.
 Requested convergence on MAX density matrix=1.00D-06.
 Requested convergence on             energy=1.00D-06.
 No special actions if energy rises.
 SCF Done:  E(RHF) =  -153.062165092     A.U. after    9 cycles
            NFock=  9  Conv=0.16D-08     -V/T= 1.9994
 Variable Step   Value    
 -------- ---- -----------
    13       6    4.787319
    14       0    0.955315
 ---------------------------------------------------------------------------------------------------
                            Z-MATRIX (ANGSTROMS AND DEGREES)
   CD    Cent   Atom    N1       Length/X        N2       Alpha/Y        N3        Beta/Z          J
 ---------------------------------------------------------------------------------------------------
      1      1  O 
      2      2  H        1   0.970000(     1)
      3      3  H        1   0.970000(     2)      2  109.471(     9)
      4      4  O        1   4.600000(     3)      2   54.736(    10)      3  180.000(    16)      0
      5      5  H        4   0.970000(     4)      1   54.736(    11)      2    0.000(    17)      0
      6      6  H        4   0.970000(     5)      1   54.736(    12)      2  180.000(    18)      0
      7         X        1   2.533340(     6)      2   54.736(    13)      3  180.000(    19)      0
      8      7  H        7   0.364980(     7)      1   90.000(    14)      2    0.000(    20)      0
      9      8  H        7   0.364980(     8)      1   90.000(    15)      2  180.000(    21)      0
 ---------------------------------------------------------------------------------------------------
                         Z-Matrix orientation:                         
 ---------------------------------------------------------------------
 Center     Atomic      Atomic             Coordinates (Angstroms)
 Number     Number       Type             X           Y           Z
 ---------------------------------------------------------------------
      1          8           0        0.000000    0.000000    0.000000
      2          1           0        0.000000    0.000000    0.970000
      3          1           0        0.914525    0.000000   -0.323333
      4          8           0       -3.755879   -0.000000    2.655818
      5          1           0       -2.841353   -0.000000    2.979148
      6          1           0       -3.755879   -0.000000    1.685818
      7         -1           0       -2.068461   -0.000000    1.462629
      8          1           0       -1.857739   -0.000000    1.760633
      9          1           0       -2.279183   -0.000000    1.164624
 ---------------------------------------------------------------------
                    Distance matrix (angstroms):
                    1          2          3          4          5
     1  O    0.000000
     2  H    0.970000   0.000000
     3  H    0.970000   1.584003   0.000000
     4  O    4.600000   4.116869   5.539677   0.000000
     5  H    4.116869   3.479937   5.001300   0.970000   0.000000
     6  H    4.116869   3.823483   5.084227   0.970000   1.584001
     7  X    2.533340   2.126314   3.476760   2.066660   1.702115
     8  H    2.559496   2.018983   3.468193   2.098641   1.565975
     9  H    2.559496   2.287477   3.523320   2.098641   1.899614
                    6          7          8          9
     6  H    0.000000
     7  X    1.702115   0.000000
     8  H    1.899614   0.364980   0.000000
     9  H    1.565975   0.364980   0.729960   0.000000
 Stoichiometry    H6O2
 Framework group  CS[SG(H6O2)]
 Deg. of freedom    13
 Full point group                 CS      NOp   2
 Largest Abelian subgroup         CS      NOp   2
 Largest concise Abelian subgroup C1      NOp   1
                         Standard orientation:                         
 ---------------------------------------------------------------------
 Center     Atomic      Atomic             Coordinates (Angstroms)
 Number     Number       Type             X           Y           Z
 ---------------------------------------------------------------------
      1          8           0        0.048000    2.253330   -0.000000
      2          1           0       -0.744000    1.693299    0.000000
      3          1           0       -0.216002    3.186713   -0.000000
      4          8           0        0.048000   -2.346670    0.000000
      5          1           0       -0.744000   -1.786638    0.000000
      6          1           0        0.840001   -1.786638   -0.000000
      7          1           0       -0.316980   -0.280010    0.000000
      8          1           0        0.412980   -0.280010   -0.000000
 ---------------------------------------------------------------------
 Rotational constants (GHZ):         231.9204491           2.6736193           2.6431487
 Standard basis: 6-31G (6D, 7F)
 There are    26 symmetry adapted cartesian basis functions of A'  symmetry.
 There are     4 symmetry adapted cartesian basis functions of A"  symmetry.
 There are    26 symmetry adapted basis functions of A'  symmetry.
 There are     4 symmetry adapted basis functions of A"  symmetry.
    30 basis functions,    68 primitive gaussians,    30 cartesian basis functions
    11 alpha electrons       11 beta electrons
       nuclear repulsion energy        39.9340781121 Hartrees.
 NAtoms=    8 NActive=    8 NUniq=    8 SFac= 1.00D+00 NAtFMM=   60 NAOKFM=F Big=F
 Integral buffers will be    131072 words long.
 Raffenetti 1 integral format.
 Two-electron integral symmetry is turned on.
 One-electron integrals computed using PRISM.
 NBasis=    30 RedAO= T EigKep=  3.85D-02  NBF=    26     4
 NBsUse=    30 1.00D-06 EigRej= -1.00D+00 NBFU=    26     4
 Initial guess from the checkpoint file:  "2H2_H2_dummy_input_4_reversed.chk"
 B after Tr=     0.000000    0.000000    0.000000
         Rot=    1.000000   -0.000000    0.000000    0.000018 Ang=   0.00 deg.
 Initial guess orbital symmetries:
       Occupied  (A') (A') (A') (A') (A') (A') (A') (A') (A') (A")
                 (A")
       Virtual   (A') (A') (A') (A') (A') (A') (A') (A') (A') (A")
                 (A') (A") (A') (A') (A') (A') (A') (A') (A')
 ExpMin= 1.61D-01 ExpMax= 5.48D+03 ExpMxC= 8.25D+02 IAcc=2 IRadAn=         4 AccDes= 0.00D+00
 Harris functional with IExCor=  205 and IRadAn=       4 diagonalized for initial guess.
 HarFok:  IExCor=  205 AccDes= 0.00D+00 IRadAn=         4 IDoV= 1 UseB2=F ITyADJ=14
 ICtDFT=  3500011 ScaDFX=  1.000000  1.000000  1.000000  1.000000
 FoFCou: FMM=F IPFlag=           0 FMFlag=      100000 FMFlg1=           0
         NFxFlg=           0 DoJE=T BraDBF=F KetDBF=T FulRan=T
         wScrn=  0.000000 ICntrl=       500 IOpCl=  0 I1Cent=   200000004 NGrid=           0
         NMat0=    1 NMatS0=      1 NMatT0=    0 NMatD0=    1 NMtDS0=    0 NMtDT0=    0
 Petite list used in FoFCou.
 Keep R1 ints in memory in symmetry-blocked form, NReq=2533374.
 Requested convergence on RMS density matrix=1.00D-08 within 128 cycles.
 Requested convergence on MAX density matrix=1.00D-06.
 Requested convergence on             energy=1.00D-06.
 No special actions if energy rises.
 SCF Done:  E(RHF) =  -153.058604624     A.U. after    9 cycles
            NFock=  9  Conv=0.17D-08     -V/T= 1.9993
 Variable Step   Value    
 -------- ---- -----------
    13       7    4.860810
    14       0    0.955315
 ---------------------------------------------------------------------------------------------------
                            Z-MATRIX (ANGSTROMS AND DEGREES)
   CD    Cent   Atom    N1       Length/X        N2       Alpha/Y        N3        Beta/Z          J
 ---------------------------------------------------------------------------------------------------
      1      1  O 
      2      2  H        1   0.970000(     1)
      3      3  H        1   0.970000(     2)      2  109.471(     9)
      4      4  O        1   4.600000(     3)      2   54.736(    10)      3  180.000(    16)      0
      5      5  H        4   0.970000(     4)      1   54.736(    11)      2    0.000(    17)      0
      6      6  H        4   0.970000(     5)      1   54.736(    12)      2  180.000(    18)      0
      7         X        1   2.572230(     6)      2   54.736(    13)      3  180.000(    19)      0
      8      7  H        7   0.364980(     7)      1   90.000(    14)      2    0.000(    20)      0
      9      8  H        7   0.364980(     8)      1   90.000(    15)      2  180.000(    21)      0
 ---------------------------------------------------------------------------------------------------
                         Z-Matrix orientation:                         
 ---------------------------------------------------------------------
 Center     Atomic      Atomic             Coordinates (Angstroms)
 Number     Number       Type             X           Y           Z
 ---------------------------------------------------------------------
      1          8           0        0.000000    0.000000    0.000000
      2          1           0        0.000000    0.000000    0.970000
      3          1           0        0.914525    0.000000   -0.323333
      4          8           0       -3.755879   -0.000000    2.655818
      5          1           0       -2.841353   -0.000000    2.979148
      6          1           0       -3.755879   -0.000000    1.685818
      7         -1           0       -2.100214   -0.000000    1.485082
      8          1           0       -1.889492   -0.000000    1.783086
      9          1           0       -2.310936   -0.000000    1.187077
 ---------------------------------------------------------------------
                    Distance matrix (angstroms):
                    1          2          3          4          5
     1  O    0.000000
     2  H    0.970000   0.000000
     3  H    0.970000   1.584003   0.000000
     4  O    4.600000   4.116869   5.539677   0.000000
     5  H    4.116869   3.479937   5.001300   0.970000   0.000000
     6  H    4.116869   3.823483   5.084227   0.970000   1.584001
     7  X    2.572230   2.162454   3.515539   2.027770   1.667790
     8  H    2.597995   2.057010   3.507066   2.060355   1.528595
     9  H    2.597995   2.321109   3.561592   2.060355   1.868920
                    6          7          8          9
     6  H    0.000000
     7  X    1.667790   0.000000
     8  H    1.868920   0.364980   0.000000
     9  H    1.528595   0.364980   0.729960   0.000000
 Stoichiometry    H6O2
 Framework group  CS[SG(H6O2)]
 Deg. of freedom    13
 Full point group                 CS      NOp   2
 Largest Abelian subgroup         CS      NOp   2
 Largest concise Abelian subgroup C1      NOp   1
                         Standard orientation:                         
 ---------------------------------------------------------------------
 Center     Atomic      Atomic             Coordinates (Angstroms)
 Number     Number       Type             X           Y           Z
 ---------------------------------------------------------------------
      1          8           0        0.048000    2.256866   -0.000000
      2          1           0       -0.744000    1.696834    0.000000
      3          1           0       -0.216002    3.190248    0.000000
      4          8           0        0.048000   -2.343134   -0.000000
      5          1           0       -0.744000   -1.783103    0.000000
      6          1           0        0.840001   -1.783103   -0.000000
      7          1           0       -0.316980   -0.315364    0.000000
      8          1           0        0.412980   -0.315364   -0.000000
 ---------------------------------------------------------------------
 Rotational constants (GHZ):         231.9253411           2.6730002           2.6425442
 Standard basis: 6-31G (6D, 7F)
 There are    26 symmetry adapted cartesian basis functions of A'  symmetry.
 There are     4 symmetry adapted cartesian basis functions of A"  symmetry.
 There are    26 symmetry adapted basis functions of A'  symmetry.
 There are     4 symmetry adapted basis functions of A"  symmetry.
    30 basis functions,    68 primitive gaussians,    30 cartesian basis functions
    11 alpha electrons       11 beta electrons
       nuclear repulsion energy        39.9742021583 Hartrees.
 NAtoms=    8 NActive=    8 NUniq=    8 SFac= 1.00D+00 NAtFMM=   60 NAOKFM=F Big=F
 Integral buffers will be    131072 words long.
 Raffenetti 1 integral format.
 Two-electron integral symmetry is turned on.
 One-electron integrals computed using PRISM.
 NBasis=    30 RedAO= T EigKep=  3.78D-02  NBF=    26     4
 NBsUse=    30 1.00D-06 EigRej= -1.00D+00 NBFU=    26     4
 Initial guess from the checkpoint file:  "2H2_H2_dummy_input_4_reversed.chk"
 B after Tr=    -0.000000   -0.000000   -0.000000
         Rot=    1.000000   -0.000000    0.000000    0.000018 Ang=   0.00 deg.
 Initial guess orbital symmetries:
       Occupied  (A') (A') (A') (A') (A') (A') (A') (A') (A') (A")
                 (A")
       Virtual   (A') (A') (A') (A') (A') (A') (A') (A') (A') (A")
                 (A') (A") (A') (A') (A') (A') (A') (A') (A')
 ExpMin= 1.61D-01 ExpMax= 5.48D+03 ExpMxC= 8.25D+02 IAcc=2 IRadAn=         4 AccDes= 0.00D+00
 Harris functional with IExCor=  205 and IRadAn=       4 diagonalized for initial guess.
 HarFok:  IExCor=  205 AccDes= 0.00D+00 IRadAn=         4 IDoV= 1 UseB2=F ITyADJ=14
 ICtDFT=  3500011 ScaDFX=  1.000000  1.000000  1.000000  1.000000
 FoFCou: FMM=F IPFlag=           0 FMFlag=      100000 FMFlg1=           0
         NFxFlg=           0 DoJE=T BraDBF=F KetDBF=T FulRan=T
         wScrn=  0.000000 ICntrl=       500 IOpCl=  0 I1Cent=   200000004 NGrid=           0
         NMat0=    1 NMatS0=      1 NMatT0=    0 NMatD0=    1 NMtDS0=    0 NMtDT0=    0
 Petite list used in FoFCou.
 Keep R1 ints in memory in symmetry-blocked form, NReq=2533422.
 Requested convergence on RMS density matrix=1.00D-08 within 128 cycles.
 Requested convergence on MAX density matrix=1.00D-06.
 Requested convergence on             energy=1.00D-06.
 No special actions if energy rises.
 SCF Done:  E(RHF) =  -153.054477969     A.U. after    9 cycles
            NFock=  9  Conv=0.17D-08     -V/T= 1.9992
 Variable Step   Value    
 -------- ---- -----------
    13       8    4.934302
    14       0    0.955315
 ---------------------------------------------------------------------------------------------------
                            Z-MATRIX (ANGSTROMS AND DEGREES)
   CD    Cent   Atom    N1       Length/X        N2       Alpha/Y        N3        Beta/Z          J
 ---------------------------------------------------------------------------------------------------
      1      1  O 
      2      2  H        1   0.970000(     1)
      3      3  H        1   0.970000(     2)      2  109.471(     9)
      4      4  O        1   4.600000(     3)      2   54.736(    10)      3  180.000(    16)      0
      5      5  H        4   0.970000(     4)      1   54.736(    11)      2    0.000(    17)      0
      6      6  H        4   0.970000(     5)      1   54.736(    12)      2  180.000(    18)      0
      7         X        1   2.611120(     6)      2   54.736(    13)      3  180.000(    19)      0
      8      7  H        7   0.364980(     7)      1   90.000(    14)      2    0.000(    20)      0
      9      8  H        7   0.364980(     8)      1   90.000(    15)      2  180.000(    21)      0
 ---------------------------------------------------------------------------------------------------
                         Z-Matrix orientation:                         
 ---------------------------------------------------------------------
 Center     Atomic      Atomic             Coordinates (Angstroms)
 Number     Number       Type             X           Y           Z
 ---------------------------------------------------------------------
      1          8           0        0.000000    0.000000    0.000000
      2          1           0        0.000000    0.000000    0.970000
      3          1           0        0.914525    0.000000   -0.323333
      4          8           0       -3.755879   -0.000000    2.655818
      5          1           0       -2.841353   -0.000000    2.979148
      6          1           0       -3.755879   -0.000000    1.685818
      7         -1           0       -2.131968   -0.000000    1.507535
      8          1           0       -1.921246   -0.000000    1.805539
      9          1           0       -2.342690   -0.000000    1.209530
 ---------------------------------------------------------------------
                    Distance matrix (angstroms):
                    1          2          3          4          5
     1  O    0.000000
     2  H    0.970000   0.000000
     3  H    0.970000   1.584003   0.000000
     4  O    4.600000   4.116869   5.539677   0.000000
     5  H    4.116869   3.479937   5.001300   0.970000   0.000000
     6  H    4.116869   3.823483   5.084227   0.970000   1.584001
     7  X    2.611120   2.198688   3.554321   1.988880   1.633669
     8  H    2.636505   2.095068   3.545940   2.022092   1.491293
     9  H    2.636505   2.354903   3.599877   2.022092   1.838535
                    6          7          8          9
     6  H    0.000000
     7  X    1.633669   0.000000
     8  H    1.838535   0.364980   0.000000
     9  H    1.491293   0.364980   0.729960   0.000000
 Stoichiometry    H6O2
 Framework group  CS[SG(H6O2)]
 Deg. of freedom    13
 Full point group                 CS      NOp   2
 Largest Abelian subgroup         CS      NOp   2
 Largest concise Abelian subgroup C1      NOp   1
                         Standard orientation:                         
 ---------------------------------------------------------------------
 Center     Atomic      Atomic             Coordinates (Angstroms)
 Number     Number       Type             X           Y           Z
 ---------------------------------------------------------------------
      1          8           0        0.048000    2.260401    0.000000
      2          1           0       -0.744000    1.700370    0.000000
      3          1           0       -0.216002    3.193784    0.000000
      4          8           0        0.048000   -2.339599   -0.000000
      5          1           0       -0.744000   -1.779568   -0.000000
      6          1           0        0.840001   -1.779568   -0.000000
      7          1           0       -0.316980   -0.350719   -0.000000
      8          1           0        0.412980   -0.350719   -0.000000
 ---------------------------------------------------------------------
 Rotational constants (GHZ):         231.9301493           2.6722999           2.6418603
 Standard basis: 6-31G (6D, 7F)
 There are    26 symmetry adapted cartesian basis functions of A'  symmetry.
 There are     4 symmetry adapted cartesian basis functions of A"  symmetry.
 There are    26 symmetry adapted basis functions of A'  symmetry.
 There are     4 symmetry adapted basis functions of A"  symmetry.
    30 basis functions,    68 primitive gaussians,    30 cartesian basis functions
    11 alpha electrons       11 beta electrons
       nuclear repulsion energy        40.0198584633 Hartrees.
 NAtoms=    8 NActive=    8 NUniq=    8 SFac= 1.00D+00 NAtFMM=   60 NAOKFM=F Big=F
 Integral buffers will be    131072 words long.
 Raffenetti 1 integral format.
 Two-electron integral symmetry is turned on.
 One-electron integrals computed using PRISM.
 NBasis=    30 RedAO= T EigKep=  3.69D-02  NBF=    26     4
 NBsUse=    30 1.00D-06 EigRej= -1.00D+00 NBFU=    26     4
 Initial guess from the checkpoint file:  "2H2_H2_dummy_input_4_reversed.chk"
 B after Tr=     0.000000   -0.000000   -0.000000
         Rot=    1.000000    0.000000   -0.000000    0.000018 Ang=   0.00 deg.
 Initial guess orbital symmetries:
       Occupied  (A') (A') (A') (A') (A') (A') (A') (A') (A") (A')
                 (A")
       Virtual   (A') (A') (A') (A') (A') (A') (A') (A') (A') (A")
                 (A') (A") (A') (A') (A') (A') (A') (A') (A')
 ExpMin= 1.61D-01 ExpMax= 5.48D+03 ExpMxC= 8.25D+02 IAcc=2 IRadAn=         4 AccDes= 0.00D+00
 Harris functional with IExCor=  205 and IRadAn=       4 diagonalized for initial guess.
 HarFok:  IExCor=  205 AccDes= 0.00D+00 IRadAn=         4 IDoV= 1 UseB2=F ITyADJ=14
 ICtDFT=  3500011 ScaDFX=  1.000000  1.000000  1.000000  1.000000
 FoFCou: FMM=F IPFlag=           0 FMFlag=      100000 FMFlg1=           0
         NFxFlg=           0 DoJE=T BraDBF=F KetDBF=T FulRan=T
         wScrn=  0.000000 ICntrl=       500 IOpCl=  0 I1Cent=   200000004 NGrid=           0
         NMat0=    1 NMatS0=      1 NMatT0=    0 NMatD0=    1 NMtDS0=    0 NMtDT0=    0
 Petite list used in FoFCou.
 Keep R1 ints in memory in symmetry-blocked form, NReq=2533422.
 Requested convergence on RMS density matrix=1.00D-08 within 128 cycles.
 Requested convergence on MAX density matrix=1.00D-06.
 Requested convergence on             energy=1.00D-06.
 No special actions if energy rises.
 SCF Done:  E(RHF) =  -153.049736636     A.U. after    9 cycles
            NFock=  9  Conv=0.18D-08     -V/T= 1.9991
 Variable Step   Value    
 -------- ---- -----------
    13       9    5.007793
    14       0    0.955315
 ---------------------------------------------------------------------------------------------------
                            Z-MATRIX (ANGSTROMS AND DEGREES)
   CD    Cent   Atom    N1       Length/X        N2       Alpha/Y        N3        Beta/Z          J
 ---------------------------------------------------------------------------------------------------
      1      1  O 
      2      2  H        1   0.970000(     1)
      3      3  H        1   0.970000(     2)      2  109.471(     9)
      4      4  O        1   4.600000(     3)      2   54.736(    10)      3  180.000(    16)      0
      5      5  H        4   0.970000(     4)      1   54.736(    11)      2    0.000(    17)      0
      6      6  H        4   0.970000(     5)      1   54.736(    12)      2  180.000(    18)      0
      7         X        1   2.650010(     6)      2   54.736(    13)      3  180.000(    19)      0
      8      7  H        7   0.364980(     7)      1   90.000(    14)      2    0.000(    20)      0
      9      8  H        7   0.364980(     8)      1   90.000(    15)      2  180.000(    21)      0
 ---------------------------------------------------------------------------------------------------
                         Z-Matrix orientation:                         
 ---------------------------------------------------------------------
 Center     Atomic      Atomic             Coordinates (Angstroms)
 Number     Number       Type             X           Y           Z
 ---------------------------------------------------------------------
      1          8           0        0.000000    0.000000    0.000000
      2          1           0        0.000000    0.000000    0.970000
      3          1           0        0.914525    0.000000   -0.323333
      4          8           0       -3.755879   -0.000000    2.655818
      5          1           0       -2.841353   -0.000000    2.979148
      6          1           0       -3.755879   -0.000000    1.685818
      7         -1           0       -2.163721   -0.000000    1.529988
      8          1           0       -1.952999   -0.000000    1.827993
      9          1           0       -2.374443   -0.000000    1.231984
 ---------------------------------------------------------------------
                    Distance matrix (angstroms):
                    1          2          3          4          5
     1  O    0.000000
     2  H    0.970000   0.000000
     3  H    0.970000   1.584003   0.000000
     4  O    4.600000   4.116869   5.539677   0.000000
     5  H    4.116869   3.479937   5.001300   0.970000   0.000000
     6  H    4.116869   3.823483   5.084227   0.970000   1.584001
     7  X    2.650010   2.235011   3.593104   1.949990   1.599766
     8  H    2.675026   2.133157   3.584815   1.983853   1.454074
     9  H    2.675026   2.388852   3.638175   1.983853   1.808477
                    6          7          8          9
     6  H    0.000000
     7  X    1.599766   0.000000
     8  H    1.808477   0.364980   0.000000
     9  H    1.454074   0.364980   0.729960   0.000000
 Stoichiometry    H6O2
 Framework group  CS[SG(H6O2)]
 Deg. of freedom    13
 Full point group                 CS      NOp   2
 Largest Abelian subgroup         CS      NOp   2
 Largest concise Abelian subgroup C1      NOp   1
                         Standard orientation:                         
 ---------------------------------------------------------------------
 Center     Atomic      Atomic             Coordinates (Angstroms)
 Number     Number       Type             X           Y           Z
 ---------------------------------------------------------------------
      1          8           0        0.048000    2.263937   -0.000000
      2          1           0       -0.744000    1.703905   -0.000000
      3          1           0       -0.216002    3.197319   -0.000000
      4          8           0        0.048000   -2.336063    0.000000
      5          1           0       -0.744000   -1.776032    0.000000
      6          1           0        0.840001   -1.776032    0.000000
      7          1           0       -0.316980   -0.386073    0.000000
      8          1           0        0.412980   -0.386073    0.000000
 ---------------------------------------------------------------------
 Rotational constants (GHZ):         231.9348735           2.6715183           2.6410971
 Standard basis: 6-31G (6D, 7F)
 There are    26 symmetry adapted cartesian basis functions of A'  symmetry.
 There are     4 symmetry adapted cartesian basis functions of A"  symmetry.
 There are    26 symmetry adapted basis functions of A'  symmetry.
 There are     4 symmetry adapted basis functions of A"  symmetry.
    30 basis functions,    68 primitive gaussians,    30 cartesian basis functions
    11 alpha electrons       11 beta electrons
       nuclear repulsion energy        40.0711856155 Hartrees.
 NAtoms=    8 NActive=    8 NUniq=    8 SFac= 1.00D+00 NAtFMM=   60 NAOKFM=F Big=F
 Integral buffers will be    131072 words long.
 Raffenetti 1 integral format.
 Two-electron integral symmetry is turned on.
 One-electron integrals computed using PRISM.
 NBasis=    30 RedAO= T EigKep=  3.60D-02  NBF=    26     4
 NBsUse=    30 1.00D-06 EigRej= -1.00D+00 NBFU=    26     4
 Initial guess from the checkpoint file:  "2H2_H2_dummy_input_4_reversed.chk"
 B after Tr=    -0.000000    0.000000    0.000000
         Rot=    1.000000   -0.000000    0.000000    0.000018 Ang=   0.00 deg.
 Initial guess orbital symmetries:
       Occupied  (A') (A') (A') (A') (A') (A') (A') (A') (A") (A')
                 (A")
       Virtual   (A') (A') (A') (A') (A') (A') (A') (A') (A') (A")
                 (A') (A") (A') (A') (A') (A') (A') (A') (A')
 ExpMin= 1.61D-01 ExpMax= 5.48D+03 ExpMxC= 8.25D+02 IAcc=2 IRadAn=         4 AccDes= 0.00D+00
 Harris functional with IExCor=  205 and IRadAn=       4 diagonalized for initial guess.
 HarFok:  IExCor=  205 AccDes= 0.00D+00 IRadAn=         4 IDoV= 1 UseB2=F ITyADJ=14
 ICtDFT=  3500011 ScaDFX=  1.000000  1.000000  1.000000  1.000000
 FoFCou: FMM=F IPFlag=           0 FMFlag=      100000 FMFlg1=           0
         NFxFlg=           0 DoJE=T BraDBF=F KetDBF=T FulRan=T
         wScrn=  0.000000 ICntrl=       500 IOpCl=  0 I1Cent=   200000004 NGrid=           0
         NMat0=    1 NMatS0=      1 NMatT0=    0 NMatD0=    1 NMtDS0=    0 NMtDT0=    0
 Petite list used in FoFCou.
 Keep R1 ints in memory in symmetry-blocked form, NReq=2533422.
 Requested convergence on RMS density matrix=1.00D-08 within 128 cycles.
 Requested convergence on MAX density matrix=1.00D-06.
 Requested convergence on             energy=1.00D-06.
 No special actions if energy rises.
 SCF Done:  E(RHF) =  -153.044324888     A.U. after    9 cycles
            NFock=  9  Conv=0.19D-08     -V/T= 1.9990
 Variable Step   Value    
 -------- ---- -----------
    13      10    5.081285
    14       0    0.955315
 ---------------------------------------------------------------------------------------------------
                            Z-MATRIX (ANGSTROMS AND DEGREES)
   CD    Cent   Atom    N1       Length/X        N2       Alpha/Y        N3        Beta/Z          J
 ---------------------------------------------------------------------------------------------------
      1      1  O 
      2      2  H        1   0.970000(     1)
      3      3  H        1   0.970000(     2)      2  109.471(     9)
      4      4  O        1   4.600000(     3)      2   54.736(    10)      3  180.000(    16)      0
      5      5  H        4   0.970000(     4)      1   54.736(    11)      2    0.000(    17)      0
[...]
  120     2.4945    -5.2645   -153.08385
  121     2.5333    -5.2645   -153.08543
  122     2.5722    -5.2645   -153.08683
  123     2.6111    -5.2645   -153.08806
  124     2.6500    -5.2645   -153.08914
  125     2.6889    -5.2645   -153.09009
  126     2.7278    -5.2645   -153.09093
  127     2.7667    -5.2645   -153.09167
  128     2.8056    -5.2645   -153.09231
  129     2.8445    -5.2645   -153.09287
  130     2.8834    -5.2645   -153.09336
  131     2.9222    -5.2645   -153.09378
  132     2.9611    -5.2645   -153.09415
  133     3.0000    -5.2645   -153.09447
  134     2.3000   -15.2645   -153.07285
  135     2.3389   -15.2645   -153.07570
  136     2.3778   -15.2645   -153.07823
  137     2.4167   -15.2645   -153.08047
  138     2.4556   -15.2645   -153.08245
  139     2.4945   -15.2645   -153.08420
  140     2.5333   -15.2645   -153.08576
  141     2.5722   -15.2645   -153.08713
  142     2.6111   -15.2645   -153.08833
  143     2.6500   -15.2645   -153.08940
  144     2.6889   -15.2645   -153.09033
  145     2.7278   -15.2645   -153.09115
  146     2.7667   -15.2645   -153.09187
  147     2.8056   -15.2645   -153.09250
  148     2.8445   -15.2645   -153.09305
  149     2.8834   -15.2645   -153.09353
  150     2.9222   -15.2645   -153.09395
  151     2.9611   -15.2645   -153.09431
  152     3.0000   -15.2645   -153.09462
  153     2.3000   -25.2645   -153.07477
  154     2.3389   -25.2645   -153.07740
  155     2.3778   -25.2645   -153.07973
  156     2.4167   -25.2645   -153.08180
  157     2.4556   -25.2645   -153.08363
  158     2.4945   -25.2645   -153.08525
  159     2.5333   -25.2645   -153.08668
  160     2.5722   -25.2645   -153.08794
  161     2.6111   -25.2645   -153.08905
  162     2.6500   -25.2645   -153.09002
  163     2.6889   -25.2645   -153.09088
  164     2.7278   -25.2645   -153.09164
  165     2.7667   -25.2645   -153.09229
  166     2.8056   -25.2645   -153.09287
  167     2.8445   -25.2645   -153.09337
  168     2.8834   -25.2645   -153.09381
  169     2.9222   -25.2645   -153.09419
  170     2.9611   -25.2645   -153.09451
  171     3.0000   -25.2645   -153.09480
  172     2.3000   -35.2645   -153.07730
  173     2.3389   -35.2645   -153.07963
  174     2.3778   -35.2645   -153.08170
  175     2.4167   -35.2645   -153.08353
  176     2.4556   -35.2645   -153.08515
  177     2.4945   -35.2645   -153.08658
  178     2.5333   -35.2645   -153.08785
  179     2.5722   -35.2645   -153.08896
  180     2.6111   -35.2645   -153.08994
  181     2.6500   -35.2645   -153.09080
  182     2.6889   -35.2645   -153.09156
  183     2.7278   -35.2645   -153.09222
  184     2.7667   -35.2645   -153.09280
  185     2.8056   -35.2645   -153.09330
  186     2.8445   -35.2645   -153.09374
  187     2.8834   -35.2645   -153.09413
  188     2.9222   -35.2645   -153.09446
  189     2.9611   -35.2645   -153.09474
  190     3.0000   -35.2645   -153.09499
  191     2.3000   -45.2645   -153.07937
  192     2.3389   -45.2645   -153.08146
  193     2.3778   -45.2645   -153.08331
  194     2.4167   -45.2645   -153.08495
  195     2.4556   -45.2645   -153.08639
  196     2.4945   -45.2645   -153.08767
  197     2.5333   -45.2645   -153.08880
  198     2.5722   -45.2645   -153.08979
  199     2.6111   -45.2645   -153.09066
  200     2.6500   -45.2645   -153.09143
  201     2.6889   -45.2645   -153.09210
  202     2.7278   -45.2645   -153.09269
  203     2.7667   -45.2645   -153.09320
  204     2.8056   -45.2645   -153.09365
  205     2.8445   -45.2645   -153.09404
  206     2.8834   -45.2645   -153.09438
  207     2.9222   -45.2645   -153.09467
  208     2.9611   -45.2645   -153.09493
  209     3.0000   -45.2645   -153.09514
  210     2.3000   -55.2645   -153.08013
  211     2.3389   -55.2645   -153.08213
  212     2.3778   -55.2645   -153.08390
  213     2.4167   -55.2645   -153.08547
  214     2.4556   -55.2645   -153.08685
  215     2.4945   -55.2645   -153.08807
  216     2.5333   -55.2645   -153.08915
  217     2.5722   -55.2645   -153.09010
  218     2.6111   -55.2645   -153.09093
  219     2.6500   -55.2645   -153.09166
  220     2.6889   -55.2645   -153.09230
  221     2.7278   -55.2645   -153.09286
  222     2.7667   -55.2645   -153.09335
  223     2.8056   -55.2645   -153.09378
  224     2.8445   -55.2645   -153.09415
  225     2.8834   -55.2645   -153.09448
  226     2.9222   -55.2645   -153.09476
  227     2.9611   -55.2645   -153.09500
  228     3.0000   -55.2645   -153.09521
  229     2.3000   -65.2645   -153.07929
  230     2.3389   -65.2645   -153.08139
  231     2.3778   -65.2645   -153.08326
  232     2.4167   -65.2645   -153.08491
  233     2.4556   -65.2645   -153.08636
  234     2.4945   -65.2645   -153.08765
  235     2.5333   -65.2645   -153.08878
  236     2.5722   -65.2645   -153.08978
  237     2.6111   -65.2645   -153.09066
  238     2.6500   -65.2645   -153.09143
  239     2.6889   -65.2645   -153.09210
  240     2.7278   -65.2645   -153.09269
  241     2.7667   -65.2645   -153.09321
  242     2.8056   -65.2645   -153.09366
  243     2.8445   -65.2645   -153.09405
  244     2.8834   -65.2645   -153.09439
  245     2.9222   -65.2645   -153.09469
  246     2.9611   -65.2645   -153.09494
  247     3.0000   -65.2645   -153.09516
  248     2.3000   -75.2645   -153.07723
  249     2.3389   -75.2645   -153.07958
  250     2.3778   -75.2645   -153.08167
  251     2.4167   -75.2645   -153.08351
  252     2.4556   -75.2645   -153.08515
  253     2.4945   -75.2645   -153.08659
  254     2.5333   -75.2645   -153.08786
  255     2.5722   -75.2645   -153.08898
  256     2.6111   -75.2645   -153.08997
  257     2.6500   -75.2645   -153.09084
  258     2.6889   -75.2645   -153.09160
  259     2.7278   -75.2645   -153.09226
  260     2.7667   -75.2645   -153.09284
  261     2.8056   -75.2645   -153.09335
  262     2.8445   -75.2645   -153.09379
  263     2.8834   -75.2645   -153.09417
  264     2.9222   -75.2645   -153.09450
  265     2.9611   -75.2645   -153.09479
  266     3.0000   -75.2645   -153.09504
  267     2.3000   -85.2645   -153.07487
  268     2.3389   -85.2645   -153.07751
  269     2.3778   -85.2645   -153.07985
  270     2.4167   -85.2645   -153.08192
  271     2.4556   -85.2645   -153.08375
  272     2.4945   -85.2645   -153.08537
  273     2.5333   -85.2645   -153.08680
  274     2.5722   -85.2645   -153.08806
  275     2.6111   -85.2645   -153.08917
  276     2.6500   -85.2645   -153.09015
  277     2.6889   -85.2645   -153.09101
  278     2.7278   -85.2645   -153.09176
  279     2.7667   -85.2645   -153.09241
  280     2.8056   -85.2645   -153.09299
  281     2.8445   -85.2645   -153.09348
  282     2.8834   -85.2645   -153.09392
  283     2.9222   -85.2645   -153.09429
  284     2.9611   -85.2645   -153.09462
  285     3.0000   -85.2645   -153.09490
  286     2.3000   -95.2645   -153.07328
  287     2.3389   -95.2645   -153.07612
  288     2.3778   -95.2645   -153.07863
  289     2.4167   -95.2645   -153.08085
  290     2.4556   -95.2645   -153.08282
  291     2.4945   -95.2645   -153.08456
  292     2.5333   -95.2645   -153.08609
  293     2.5722   -95.2645   -153.08745
  294     2.6111   -95.2645   -153.08864
  295     2.6500   -95.2645   -153.08969
  296     2.6889   -95.2645   -153.09061
  297     2.7278   -95.2645   -153.09142
  298     2.7667   -95.2645   -153.09213
  299     2.8056   -95.2645   -153.09275
  300     2.8445   -95.2645   -153.09329
  301     2.8834   -95.2645   -153.09375
  302     2.9222   -95.2645   -153.09416
  303     2.9611   -95.2645   -153.09451
  304     3.0000   -95.2645   -153.09481
  305     2.3000  -105.2645   -153.07312
  306     2.3389  -105.2645   -153.07598
  307     2.3778  -105.2645   -153.07852
  308     2.4167  -105.2645   -153.08076
  309     2.4556  -105.2645   -153.08274
  310     2.4945  -105.2645   -153.08450
  311     2.5333  -105.2645   -153.08604
  312     2.5722  -105.2645   -153.08741
  313     2.6111  -105.2645   -153.08861
  314     2.6500  -105.2645   -153.08967
  315     2.6889  -105.2645   -153.09060
  316     2.7278  -105.2645   -153.09142
  317     2.7667  -105.2645   -153.09213
  318     2.8056  -105.2645   -153.09275
  319     2.8445  -105.2645   -153.09329
  320     2.8834  -105.2645   -153.09377
  321     2.9222  -105.2645   -153.09417
  322     2.9611  -105.2645   -153.09453
  323     3.0000  -105.2645   -153.09483
  324     2.3000  -115.2645   -153.07440
  325     2.3389  -115.2645   -153.07713
  326     2.3778  -115.2645   -153.07954
  327     2.4167  -115.2645   -153.08168
  328     2.4556  -115.2645   -153.08356
  329     2.4945  -115.2645   -153.08522
  330     2.5333  -115.2645   -153.08669
  331     2.5722  -115.2645   -153.08798
  332     2.6111  -115.2645   -153.08912
  333     2.6500  -115.2645   -153.09011
  334     2.6889  -115.2645   -153.09099
  335     2.7278  -115.2645   -153.09176
  336     2.7667  -115.2645   -153.09243
  337     2.8056  -115.2645   -153.09301
  338     2.8445  -115.2645   -153.09352
  339     2.8834  -115.2645   -153.09396
  340     2.9222  -115.2645   -153.09434
  341     2.9611  -115.2645   -153.09467
  342     3.0000  -115.2645   -153.09496
  343     2.3000  -125.2645   -153.07688
  344     2.3389  -125.2645   -153.07933
  345     2.3778  -125.2645   -153.08150
  346     2.4167  -125.2645   -153.08342
  347     2.4556  -125.2645   -153.08510
  348     2.4945  -125.2645   -153.08659
  349     2.5333  -125.2645   -153.08789
  350     2.5722  -125.2645   -153.08904
  351     2.6111  -125.2645   -153.09004
  352     2.6500  -125.2645   -153.09093
  353     2.6889  -125.2645   -153.09170
  354     2.7278  -125.2645   -153.09237
  355     2.7667  -125.2645   -153.09296
  356     2.8056  -125.2645   -153.09347
  357     2.8445  -125.2645   -153.09391
  358     2.8834  -125.2645   -153.09429
  359     2.9222  -125.2645   -153.09462
  360     2.9611  -125.2645   -153.09491
  361     3.0000  -125.2645   -153.09515
 ----  ---------  ---------  -----------
  
 1\1\GINC-NSCC-N12\Scan\RHF\6-31G\H6O2\JKIM22\08-Jul-2020\1\\# scan hf/
 6-31g\\2H2_H2_dummy_input_4_reversed\\0,1\O\H,1,B1\H,1,B2,2,A1\O,1,B3,
 2,A2,3,D1,0\H,4,B4,1,A3,2,D2,0\H,4,B5,1,A4,2,D3,0\X,1,B6,2,A5,3,D4,0\H
 ,7,B7,1,A6,2,D5,0\H,7,B8,1,A7,2,D6,0\\B1=0.97\B2=0.97\A1=109.47122063\
 B3=4.6\A2=54.7355\D1=180.\B4=0.97\A3=54.7355\D2=0.\B5=0.97\A4=54.7355\
 D3=180.\B6=2.3,s,18,0.03889\A5=54.7355,s,18,-10.\D4=180.\B7=0.36498\A6
 =90.\D5=0.\B8=0.36498\A7=90.\D6=180.\\Version=ES64L-G16RevA.03\HF=-153
 .0727166,-153.0714851,-153.0698348,-153.0677479,-153.0652011,-153.0621
 651,-153.0586046,-153.054478,-153.0497366,-153.0443249,-153.0381792,-1
 53.0312276,-153.0233889,-153.014572,-153.0046748,-152.9935834,-152.981
 1707,-152.9672956,-152.9518022,-153.0736238,-153.0731589,-153.0723102,
 -153.0710725,-153.0694359,-153.067386,-153.0649037,-153.0619652,-153.0
 585425,-153.0546023,-153.050107,-153.0450138,-153.039275,-153.0328378,
 -153.0256441,-153.0176308,-153.0087293,-152.998866,-152.9879625,-153.0
 761656,-153.0769377,-153.0773974,-153.0775585,-153.0774314,-153.077023
 4,-153.0763385,-153.0753781,-153.0741409,-153.072623,-153.0708179,-153
 .0687166,-153.0663075,-153.0635762,-153.0605052,-153.0570739,-153.0532
 577,-153.0490276,-153.0443494,-153.0765924,-153.0783868,-153.0798948,-
 153.0811435,-153.0821569,-153.0829558,-153.0835584,-153.0839807,-153.0
 842368,-153.0843389,-153.0842978,-153.0841231,-153.0838232,-153.083405
 4,-153.0828765,-153.0822424,-153.0815087,-153.0806805,-153.0797627,-15
 3.0750588,-153.0774961,-153.0796328,-153.0815028,-153.0831356,-153.084
 5576,-153.0857921,-153.0868598,-153.0877791,-153.0885667,-153.0892371,
 -153.0898038,-153.0902787,-153.0906725,-153.090995,-153.0912551,-153.0
 914607,-153.0916191,-153.091737,-153.073204,-153.0759793,-153.0784335,
 -153.0806029,-153.0825194,-153.0842113,-153.0857034,-153.0870179,-153.
 0881744,-153.0891904,-153.0900815,-153.0908618,-153.0915436,-153.09213
 82,-153.0926557,-153.0931051,-153.0934944,-153.093831,-153.0941214,-15
 3.0722957,-153.0751989,-153.0777717,-153.0800509,-153.0820691,-153.083
 8548,-153.0854335,-153.0868278,-153.0880578,-153.0891414,-153.0900946,
 -153.0909317,-153.0916656,-153.0923078,-153.0928686,-153.0933574,-153.
 0937825,-153.0941513,-153.0944706,-153.0728528,-153.0757019,-153.07822
 82,-153.0804671,-153.08245,-153.0842047,-153.0857559,-153.0871257,-153
 .0883337,-153.0893976,-153.0903331,-153.0911542,-153.0918737,-153.0925
 029,-153.0930521,-153.0935304,-153.0939461,-153.0943065,-153.0946182,-
 153.074769,-153.0773991,-153.0797314,-153.081798,-153.0836277,-153.085
 2458,-153.0866752,-153.0879363,-153.0890473,-153.0900247,-153.0908831,
 -153.0916357,-153.0922944,-153.0928697,-153.0933712,-153.0938075,-153.
 0941863,-153.0945143,-153.0947977,-153.0772999,-153.0796326,-153.08170
 05,-153.0835319,-153.0851522,-153.0865839,-153.0878474,-153.088961,-15
 3.0899411,-153.0908024,-153.091558,-153.0922197,-153.0927983,-153.0933
 032,-153.093743,-153.0941253,-153.0944569,-153.0947439,-153.0949917,-1
 53.0793703,-153.0814589,-153.0833091,-153.0849463,-153.0863935,-153.08
 76712,-153.0887977,-153.0897897,-153.090662,-153.0914279,-153.0920993,
 -153.092687,-153.0932004,-153.0936483,-153.0940382,-153.094377,-153.09
 46708,-153.094925,-153.0951445,-153.0801285,-153.0821293,-153.0839009,
 -153.0854679,-153.0868523,-153.0880741,-153.0891508,-153.0900985,-153.
 0909316,-153.0916627,-153.0923035,-153.0928641,-153.0933538,-153.09378
 08,-153.0941525,-153.0944753,-153.0947553,-153.0949975,-153.0952065,-1
 53.079291,-153.0813943,-153.0832572,-153.0849056,-153.0863625,-153.087
 6485,-153.0887823,-153.0897806,-153.0906582,-153.0914286,-153.0921039,
 -153.0926947,-153.0932108,-153.0936608,-153.0940524,-153.0943925,-153.
 0946873,-153.0949423,-153.0951623,-153.0772303,-153.0795831,-153.08166
 81,-153.0835142,-153.0851469,-153.0865891,-153.0878616,-153.0889827,-1
 53.089969,-153.0908353,-153.091595,-153.0922601,-153.0928411,-153.0933
 479,-153.093789,-153.094172,-153.094504,-153.094791,-153.0950386,-153.
 0748685,-153.0775079,-153.0798471,-153.0819188,-153.0837519,-153.08537
 22,-153.0868026,-153.0880639,-153.0891744,-153.0901505,-153.0910072,-1
 53.0917577,-153.0924138,-153.0929864,-153.093485,-153.0939181,-153.094
 2935,-153.0946181,-153.0948981,-153.0732838,-153.0761171,-153.0786274,
 -153.0808503,-153.0828174,-153.0845567,-153.0860929,-153.0874481,-153.
 0886421,-153.0896924,-153.0906149,-153.0914235,-153.0921311,-153.09274
 88,-153.093287,-153.0937548,-153.0941604,-153.0945112,-153.0948137,-15
 3.0731214,-153.0759832,-153.078517,-153.0807593,-153.0827428,-153.0844
 959,-153.0860441,-153.0874097,-153.0886129,-153.0896713,-153.0906008,-
 153.0914158,-153.0921289,-153.0927515,-153.093294,-153.0937654,-153.09
 41741,-153.0945275,-153.0948321,-153.0744016,-153.0771314,-153.0795446
 ,-153.0816771,-153.0835606,-153.0852231,-153.0866891,-153.0879804,-153
 .0891166,-153.0901147,-153.0909901,-153.0917567,-153.0924265,-153.0930
 106,-153.0935189,-153.09396,-153.094342,-153.0946717,-153.0949557,-153
 .076875,-153.0793346,-153.0815043,-153.0834173,-153.0851028,-153.08658
 68,-153.087892,-153.0890386,-153.0900447,-153.0909261,-153.0916971,-15
 3.0923702,-153.0929569,-153.0934671,-153.0939098,-153.0942931,-153.094
 6241,-153.0949091,-153.095154\RMSD=1.129e-09,1.699e-09,1.657e-09,1.633
 e-09,1.625e-09,1.637e-09,1.668e-09,1.724e-09,1.808e-09,1.928e-09,2.093
 e-09,2.316e-09,2.619e-09,3.039e-09,3.645e-09,4.561e-09,5.997e-09,8.266
 e-09,3.501e-09,2.963e-09,2.369e-09,2.430e-09,2.525e-09,2.635e-09,2.718
 e-09,2.702e-09,2.540e-09,9.393e-09,9.362e-09,3.873e-09,5.527e-09,7.288
 e-09,8.990e-09,1.217e-09,1.449e-09,1.760e-09,2.169e-09,2.694e-09,4.229
 e-09,4.990e-09,4.520e-09,4.287e-09,4.383e-09,4.863e-09,4.583e-09,4.768
 e-09,5.711e-09,6.728e-09,7.570e-09,8.226e-09,8.766e-09,9.273e-09,9.828
 e-09,2.329e-09,2.439e-09,2.709e-09,3.144e-09,4.541e-09,5.282e-09,4.676
 e-09,4.365e-09,4.307e-09,4.546e-09,5.132e-09,5.997e-09,6.944e-09,7.767
 e-09,8.363e-09,8.738e-09,8.943e-09,9.031e-09,9.038e-09,8.989e-09,8.898
 e-09,8.772e-09,8.618e-09,3.993e-09,4.965e-09,4.598e-09,4.406e-09,4.315
 e-09,4.244e-09,4.135e-09,3.975e-09,3.770e-09,3.531e-09,3.273e-09,3.026
 e-09,2.826e-09,2.699e-09,2.648e-09,2.659e-09,2.708e-09,2.772e-09,2.828
 e-09,3.503e-09,4.226e-09,3.920e-09,3.679e-09,3.490e-09,3.341e-09,3.218
 e-09,3.113e-09,3.015e-09,2.917e-09,2.815e-09,2.704e-09,2.584e-09,2.455
 e-09,2.319e-09,9.903e-09,9.548e-09,9.213e-09,8.894e-09,3.639e-09,5.081
 e-09,4.813e-09,4.579e-09,4.370e-09,4.179e-09,4.002e-09,3.832e-09,3.666
 e-09,3.501e-09,3.333e-09,3.163e-09,2.988e-09,2.811e-09,2.633e-09,2.457
 e-09,2.286e-09,2.123e-09,1.971e-09,9.900e-09,6.244e-09,5.933e-09,5.601
 e-09,5.266e-09,4.940e-09,4.629e-09,4.335e-09,4.059e-09,3.797e-09,3.548
 e-09,3.311e-09,3.083e-09,2.866e-09,2.660e-09,2.468e-09,2.291e-09,2.130
 e-09,1.986e-09,4.114e-09,6.125e-09,5.690e-09,5.233e-09,4.791e-09,4.383
 e-09,4.015e-09,3.689e-09,3.398e-09,3.140e-09,2.907e-09,2.698e-09,2.508
 e-09,2.337e-09,2.184e-09,2.048e-09,1.928e-09,1.825e-09,1.736e-09,7.986
 e-09,4.492e-09,4.102e-09,3.726e-09,3.383e-09,3.081e-09,2.819e-09,2.595
 e-09,2.404e-09,2.240e-09,2.099e-09,1.978e-09,1.873e-09,1.783e-09,1.706
 e-09,1.639e-09,1.583e-09,1.535e-09,1.494e-09,5.270e-09,2.670e-09,2.492
 e-09,2.327e-09,2.176e-09,2.040e-09,1.920e-09,1.815e-09,1.722e-09,1.641
 e-09,1.571e-09,1.511e-09,1.458e-09,1.411e-09,1.371e-09,1.335e-09,1.303
 e-09,1.276e-09,1.252e-09,5.492e-09,1.711e-09,1.555e-09,1.433e-09,1.337
 e-09,1.262e-09,1.205e-09,1.161e-09,1.128e-09,1.102e-09,1.083e-09,1.066
 e-09,1.052e-09,1.039e-09,1.025e-09,1.012e-09,9.980e-10,9.849e-10,9.774
 e-09,7.680e-09,2.448e-09,2.186e-09,1.959e-09,1.764e-09,1.595e-09,1.451
 e-09,1.328e-09,1.224e-09,1.137e-09,1.063e-09,1.003e-09,9.530e-10,9.122
 e-10,8.790e-10,8.520e-10,8.301e-10,8.125e-10,9.839e-09,4.096e-09,4.028
 e-09,3.633e-09,3.281e-09,2.970e-09,2.698e-09,2.460e-09,2.249e-09,2.062
 e-09,1.895e-09,1.744e-09,1.607e-09,1.481e-09,1.366e-09,1.260e-09,1.163
 e-09,1.076e-09,9.968e-10,9.268e-10,6.235e-09,5.538e-09,5.070e-09,4.637
 e-09,4.243e-09,3.887e-09,3.565e-09,3.273e-09,3.008e-09,2.764e-09,2.540
 e-09,2.332e-09,2.138e-09,1.959e-09,1.792e-09,1.637e-09,1.495e-09,1.364
 e-09,1.244e-09,3.360e-09,6.056e-09,5.658e-09,5.276e-09,4.914e-09,4.573
 e-09,4.252e-09,3.949e-09,3.662e-09,3.390e-09,3.132e-09,2.886e-09,2.653
 e-09,2.433e-09,2.226e-09,2.032e-09,1.852e-09,1.686e-09,1.534e-09,3.565
 e-09,5.225e-09,4.956e-09,4.701e-09,4.456e-09,4.219e-09,3.989e-09,3.764
 e-09,3.542e-09,3.324e-09,3.109e-09,2.898e-09,2.691e-09,2.491e-09,2.298
 e-09,2.113e-09,1.940e-09,1.778e-09,1.628e-09,3.266e-09,3.984e-09,3.766
 e-09,3.573e-09,3.399e-09,3.237e-09,3.084e-09,2.935e-09,2.789e-09,2.644
 e-09,2.500e-09,2.355e-09,2.211e-09,2.069e-09,1.929e-09,1.795e-09,1.667
 e-09,9.963e-09,9.431e-09,7.611e-09,2.867e-09,2.665e-09,2.489e-09,2.333
 e-09,2.195e-09,2.069e-09,1.952e-09,1.843e-09,9.702e-09,9.226e-09,8.786
 e-09,8.374e-09,7.986e-09,7.614e-09,7.256e-09,6.907e-09,6.566e-09,6.232
 e-09\PG=CS [SG(H6O2)]\\@


 I MET A TRAVELLER FROM AN ANTIQUE LAND
 WHO SAID... TWO VAST AND TRUNKLESS LEGS OF STONE
 STAND IN THE DESERT..... NEAR THEM,  ON THE SAND,
 HALF SUNK,  A SHATTERED VISAGE LIES,  WHOSE FROWN,
 AND WRINKLED LIP,  AND SNEER OF COLD COMMAND
 TELL THAT ITS SCULPTOR WELL THOSE PASSIONS READ
 WHICH YET SURVIVE,  STAMPED ON THESE LIFELESS THINGS
 THE HAND THAT MOCKED THEM,  AND THE HEART THAT FED-
 AND ON THE PEDESTAL THESE WORDS APPEAR 
 MY NAME IS OZYMANDIAS, KING OF KINGS--   
 LOOK ON MY WORKS YE MIGHTY AND DESPAIR. 
 NOTHING BESIDE REMAINS,  ROUND THE DECAY 
 OF THAT COLOSSAL WRECK,  BOUNDLESS AND BARE
 THE LONE AND LEVEL SANDS STRETCH FAR AWAY.
                                    SHELLEY
 Job cpu time:       0 days  0 hours 40 minutes 18.2 seconds.
 Elapsed time:       0 days  0 hours  4 minutes 16.1 seconds.
 File lengths (MBytes):  RWF=     10 Int=      0 D2E=      0 Chk=      4 Scr=      1
 Normal termination of Gaussian 16 at Wed Jul  8 02:53:40 2020.
