 Entering Gaussian System, Link 0=g16
 Input=2H2_H2_dummy_input_5.gjf
 Output=2H2_H2_dummy_input_5.log
 Initial command:
 /export/local/g16/l1.exe "/var/tmp/Gau-7385.inp" -scrdir="/var/tmp/"
 Entering Link 1 = /export/local/g16/l1.exe PID=      7386.
  
 Copyright (c) 1988,1990,1992,1993,1995,1998,2003,2009,2016,
            Gaussian, Inc.  All Rights Reserved.
  
 This is part of the Gaussian(R) 16 program.  It is based on
 the Gaussian(R) 09 system (copyright 2009, Gaussian, Inc.),
 the Gaussian(R) 03 system (copyright 2003, Gaussian, Inc.),
 the Gaussian(R) 98 system (copyright 1998, Gaussian, Inc.),
 the Gaussian(R) 94 system (copyright 1995, Gaussian, Inc.),
 the Gaussian 92(TM) system (copyright 1992, Gaussian, Inc.),
 the Gaussian 90(TM) system (copyright 1990, Gaussian, Inc.),
 the Gaussian 88(TM) system (copyright 1988, Gaussian, Inc.),
 the Gaussian 86(TM) system (copyright 1986, Carnegie Mellon
 University), and the Gaussian 82(TM) system (copyright 1983,
 Carnegie Mellon University). Gaussian is a federally registered
 trademark of Gaussian, Inc.
  
 This software contains proprietary and confidential information,
 including trade secrets, belonging to Gaussian, Inc.
  
 This software is provided under written license and may be
 used, copied, transmitted, or stored only in accord with that
 written license.
  
 The following legend is applicable only to US Government
 contracts under FAR:
  
                    RESTRICTED RIGHTS LEGEND
  
 Use, reproduction and disclosure by the US Government is
 subject to restrictions as set forth in subparagraphs (a)
 and (c) of the Commercial Computer Software - Restricted
 Rights clause in FAR 52.227-19.
  
 Gaussian, Inc.
 340 Quinnipiac St., Bldg. 40, Wallingford CT 06492
  
  
 ---------------------------------------------------------------
 Warning -- This program may not be used in any manner that
 competes with the business of Gaussian, Inc. or will provide
 assistance to any competitor of Gaussian, Inc.  The licensee
 of this program is prohibited from giving any competitor of
 Gaussian, Inc. access to this program.  By using this program,
 the user acknowledges that Gaussian, Inc. is engaged in the
 business of creating and licensing software in the field of
 computational chemistry and represents and warrants to the
 licensee that it is not a competitor of Gaussian, Inc. and that
 it will not use this program in any manner prohibited above.
 ---------------------------------------------------------------
  

 Cite this work as:
 Gaussian 16, Revision A.03,
 M. J. Frisch, G. W. Trucks, H. B. Schlegel, G. E. Scuseria, 
 M. A. Robb, J. R. Cheeseman, G. Scalmani, V. Barone, 
 G. A. Petersson, H. Nakatsuji, X. Li, M. Caricato, A. V. Marenich, 
 J. Bloino, B. G. Janesko, R. Gomperts, B. Mennucci, H. P. Hratchian, 
 J. V. Ortiz, A. F. Izmaylov, J. L. Sonnenberg, D. Williams-Young, 
 F. Ding, F. Lipparini, F. Egidi, J. Goings, B. Peng, A. Petrone, 
 T. Henderson, D. Ranasinghe, V. G. Zakrzewski, J. Gao, N. Rega, 
 G. Zheng, W. Liang, M. Hada, M. Ehara, K. Toyota, R. Fukuda, 
 J. Hasegawa, M. Ishida, T. Nakajima, Y. Honda, O. Kitao, H. Nakai, 
 T. Vreven, K. Throssell, J. A. Montgomery, Jr., J. E. Peralta, 
 F. Ogliaro, M. J. Bearpark, J. J. Heyd, E. N. Brothers, K. N. Kudin, 
 V. N. Staroverov, T. A. Keith, R. Kobayashi, J. Normand, 
 K. Raghavachari, A. P. Rendell, J. C. Burant, S. S. Iyengar, 
 J. Tomasi, M. Cossi, J. M. Millam, M. Klene, C. Adamo, R. Cammi, 
 J. W. Ochterski, R. L. Martin, K. Morokuma, O. Farkas, 
 J. B. Foresman, and D. J. Fox, Gaussian, Inc., Wallingford CT, 2016.
 
 ******************************************
 Gaussian 16:  ES64L-G16RevA.03 25-Dec-2016
                 4-Nov-2019 
 ******************************************
 %chk=2H2_H2_dummy_input_5.chk
 %nprocshared=12
 Will use up to   12 processors via shared memory.
 ---------------
 # scan hf/6-31g
 ---------------
 1/38=1,60=1,172=1/1,8;
 2/12=2,17=6,18=5,29=3,40=1/2;
 3/5=1,6=6,11=9,25=1,30=1/1,2,3;
 4//1;
 5/5=2,38=5/2;
 6/7=2,8=2,9=2,10=2,18=1,28=1/1;
 1/60=1/8(1);
 99/9=1/99;
 2/29=3/2;
 3/5=1,6=6,11=9,25=1,30=1/1,2,3;
 4/5=5,16=3,69=1/1;
 5/5=2,38=5/2;
 1/60=1/8(-4);
 99/9=1/99;
 ---------------------
 2H2O_H2_dummy_input_5
 ---------------------
 Symbolic Z-matrix:
 Charge =  0 Multiplicity = 1
 O
 H                    1    B1
 H                    1    B2       2    A1
 O                    1    B3       2    A2       3    D1       0
 H                    4    B4       1    A3       2    D2       0
 H                    4    B5       1    A4       2    D3       0
 X                    1    B6       2    A5       3    D4       0
 H                    7    B7       1    A6       2    D5       0
 H                    7    B8       1    A7       2    D6       0
       Variables:
  B1                    0.97                     
  B2                    0.97                     
  B3                    4.6                      
  B4                    0.97                     
  B5                    0.97                     
  B6                    2.3    Scan 18   -0.03889
  B7                    0.36498                  
  B8                    0.36498                  
  A1                  109.471                    
  A2                  125.2645                   
  A3                  125.2645                   
  A4                  125.2645                   
  A5                  125.2645 Scan 18  -10.     
  A6                   90.                       
  A7                   90.                       
  D1                  180.                       
  D2                    0.                       
  D3                  180.                       
  D4                  180.                       
  D5                    0.                       
  D6                  180.                       
 
     1 tetrahedral angles replaced.
    1 tetrahedral angles replaced.
 Scan the potential surface.
 Variable   Value     No. Steps Step-Size
 -------- ----------- --------- ---------
     6       2.300000      18     -0.0389
    13     125.264500      18    -10.0000
 A total of    361 points will be computed.
 ---------------------------------------------------------------------------------------------------
                            Z-MATRIX (ANGSTROMS AND DEGREES)
   CD    Cent   Atom    N1       Length/X        N2       Alpha/Y        N3        Beta/Z          J
 ---------------------------------------------------------------------------------------------------
      1      1  O 
      2      2  H        1   0.970000(     1)
      3      3  H        1   0.970000(     2)      2  109.471(     9)
      4      4  O        1   4.600000(     3)      2  125.265(    10)      3  180.000(    16)      0
      5      5  H        4   0.970000(     4)      1  125.265(    11)      2    0.000(    17)      0
      6      6  H        4   0.970000(     5)      1  125.265(    12)      2  180.000(    18)      0
      7         X        1   2.300000(     6)      2  125.265(    13)      3  180.000(    19)      0
      8      7  H        7   0.364980(     7)      1   90.000(    14)      2    0.000(    20)      0
      9      8  H        7   0.364980(     8)      1   90.000(    15)      2  180.000(    21)      0
 ---------------------------------------------------------------------------------------------------
                         Z-Matrix orientation:                         
 ---------------------------------------------------------------------
 Center     Atomic      Atomic             Coordinates (Angstroms)
 Number     Number       Type             X           Y           Z
 ---------------------------------------------------------------------
      1          8           0        0.000000    0.000000    0.000000
      2          1           0        0.000000    0.000000    0.970000
      3          1           0        0.914525    0.000000   -0.323333
      4          8           0       -3.755879   -0.000000   -2.655818
      5          1           0       -4.670405   -0.000000   -2.332489
      6          1           0       -3.755879   -0.000000   -3.625818
      7         -1           0       -1.877940   -0.000000   -1.327909
      8          1           0       -2.088661   -0.000000   -1.029905
      9          1           0       -1.667218   -0.000000   -1.625914
 ---------------------------------------------------------------------
                    Distance matrix (angstroms):
                    1          2          3          4          5
     1  O    0.000000
     2  H    0.970000   0.000000
     3  H    0.970000   1.584003   0.000000
     4  O    4.600000   5.220459   5.220456   0.000000
     5  H    5.220459   5.720063   5.935330   0.970000   0.000000
     6  H    5.220459   5.935333   5.720060   0.970000   1.584001
     7  X    2.300000   2.967666   2.967664   2.300000   2.967666
     8  H    2.328779   2.891734   3.085186   2.328779   2.891734
     9  H    2.328779   3.085188   2.891731   2.328779   3.085188
                    6          7          8          9
     6  H    0.000000
     7  X    2.967666   0.000000
     8  H    3.085188   0.364980   0.000000
     9  H    2.891734   0.364980   0.729960   0.000000
 Stoichiometry    H6O2
 Framework group  CS[SG(H6O2)]
 Deg. of freedom    13
 Full point group                 CS      NOp   2
 Largest Abelian subgroup         CS      NOp   2
 Largest concise Abelian subgroup C1      NOp   1
                         Standard orientation:                         
 ---------------------------------------------------------------------
 Center     Atomic      Atomic             Coordinates (Angstroms)
 Number     Number       Type             X           Y           Z
 ---------------------------------------------------------------------
      1          8           0        0.000000   -2.300000   -0.000000
      2          1           0        0.792001   -2.860031   -0.000000
      3          1           0       -0.792003   -2.860028   -0.000000
      4          8           0        0.000000    2.300000    0.000000
      5          1           0        0.792001    2.860031    0.000000
      6          1           0       -0.792001    2.860031    0.000000
      7          1           0        0.364980   -0.000000   -0.000000
      8          1           0       -0.364980   -0.000000    0.000000
 ---------------------------------------------------------------------
 Rotational constants (GHZ):         180.6730268           2.4993853           2.4652812
 Standard basis: 6-31G (6D, 7F)
 There are    26 symmetry adapted cartesian basis functions of A'  symmetry.
 There are     4 symmetry adapted cartesian basis functions of A"  symmetry.
 There are    26 symmetry adapted basis functions of A'  symmetry.
 There are     4 symmetry adapted basis functions of A"  symmetry.
    30 basis functions,    68 primitive gaussians,    30 cartesian basis functions
    11 alpha electrons       11 beta electrons
       nuclear repulsion energy        38.5095581663 Hartrees.
 NAtoms=    8 NActive=    8 NUniq=    8 SFac= 1.00D+00 NAtFMM=   60 NAOKFM=F Big=F
 Integral buffers will be    131072 words long.
 Raffenetti 1 integral format.
 Two-electron integral symmetry is turned on.
 One-electron integrals computed using PRISM.
 NBasis=    30 RedAO= T EigKep=  7.07D-02  NBF=    26     4
 NBsUse=    30 1.00D-06 EigRej= -1.00D+00 NBFU=    26     4
 ExpMin= 1.61D-01 ExpMax= 5.48D+03 ExpMxC= 8.25D+02 IAcc=3 IRadAn=         5 AccDes= 0.00D+00
 Harris functional with IExCor=  205 and IRadAn=       5 diagonalized for initial guess.
 HarFok:  IExCor=  205 AccDes= 0.00D+00 IRadAn=         5 IDoV= 1 UseB2=F ITyADJ=14
 ICtDFT=  3500011 ScaDFX=  1.000000  1.000000  1.000000  1.000000
 FoFCou: FMM=F IPFlag=           0 FMFlag=      100000 FMFlg1=           0
         NFxFlg=           0 DoJE=T BraDBF=F KetDBF=T FulRan=T
         wScrn=  0.000000 ICntrl=       500 IOpCl=  0 I1Cent=   200000004 NGrid=           0
         NMat0=    1 NMatS0=      1 NMatT0=    0 NMatD0=    1 NMtDS0=    0 NMtDT0=    0
 Petite list used in FoFCou.
 Initial guess orbital symmetries:
       Occupied  (A') (A') (A') (A') (A') (A') (A') (A') (A') (A")
                 (A")
       Virtual   (A') (A') (A') (A') (A') (A') (A') (A") (A") (A')
                 (A') (A') (A') (A') (A') (A') (A') (A') (A')
 The electronic state of the initial guess is 1-A'.
 Keep R1 ints in memory in symmetry-blocked form, NReq=2532491.
 Requested convergence on RMS density matrix=1.00D-08 within 128 cycles.
 Requested convergence on MAX density matrix=1.00D-06.
 Requested convergence on             energy=1.00D-06.
 No special actions if energy rises.
 SCF Done:  E(RHF) =  -153.076373366     A.U. after   10 cycles
            NFock= 10  Conv=0.20D-08     -V/T= 1.9998

 **********************************************************************

            Population analysis using the SCF density.

 **********************************************************************

 Orbital symmetries:
       Occupied  (A') (A') (A') (A') (A') (A') (A') (A') (A") (A")
                 (A')
       Virtual   (A') (A') (A') (A') (A') (A') (A') (A') (A') (A')
                 (A") (A") (A') (A') (A') (A') (A') (A') (A')
 The electronic state is 1-A'.
 Alpha  occ. eigenvalues --  -20.54429 -20.54429  -1.33213  -1.33204  -0.69864
 Alpha  occ. eigenvalues --   -0.69859  -0.57279  -0.53810  -0.48511  -0.48506
 Alpha  occ. eigenvalues --   -0.45996
 Alpha virt. eigenvalues --    0.21093   0.21698   0.30575   0.30724   0.31434
 Alpha virt. eigenvalues --    0.91002   1.09389   1.11737   1.15772   1.15910
 Alpha virt. eigenvalues --    1.17874   1.17909   1.21472   1.39311   1.39653
 Alpha virt. eigenvalues --    1.41010   1.57861   1.69165   1.70949
          Condensed to atoms (all electrons):
               1          2          3          4          5          6
     1  O    8.318602   0.253233   0.253233   0.000002  -0.000001  -0.000001
     2  H    0.253233   0.373990  -0.026503  -0.000001   0.000000   0.000000
     3  H    0.253233  -0.026503   0.373990  -0.000001   0.000000   0.000000
     4  O    0.000002  -0.000001  -0.000001   8.318601   0.253233   0.253233
     5  H   -0.000001   0.000000   0.000000   0.253233   0.373991  -0.026503
     6  H   -0.000001   0.000000   0.000000   0.253233  -0.026503   0.373991
     7  H   -0.015392   0.001171   0.000871  -0.015392   0.001171   0.000871
     8  H   -0.015392   0.000871   0.001171  -0.015392   0.000871   0.001171
               7          8
     1  O   -0.015392  -0.015392
     2  H    0.001171   0.000871
     3  H    0.000871   0.001171
     4  O   -0.015392  -0.015392
     5  H    0.001171   0.000871
     6  H    0.000871   0.001171
     7  H    0.608893   0.417998
     8  H    0.417998   0.608894
 Mulliken charges:
               1
     1  O   -0.794284
     2  H    0.397238
     3  H    0.397238
     4  O   -0.794284
     5  H    0.397238
     6  H    0.397238
     7  H   -0.000192
     8  H   -0.000192
 Sum of Mulliken charges =  -0.00000
 Mulliken charges with hydrogens summed into heavy atoms:
               1
     1  O   -0.000192
     4  O    0.000192
 Electronic spatial extent (au):  <R**2>=            441.5930
 Charge=             -0.0000 electrons
 Dipole moment (field-independent basis, Debye):
    X=             -0.0000    Y=              0.0000    Z=              0.0000  Tot=              0.0000
 Quadrupole moment (field-independent basis, Debye-Ang):
   XX=             -9.6158   YY=              9.2014   ZZ=            -16.5124
   XY=              0.0000   XZ=             -0.0000   YZ=              0.0000
 Traceless Quadrupole moment (field-independent basis, Debye-Ang):
   XX=             -3.9735   YY=             14.8437   ZZ=            -10.8701
   XY=              0.0000   XZ=             -0.0000   YZ=              0.0000
 Octapole moment (field-independent basis, Debye-Ang**2):
  XXX=             -0.0000  YYY=              0.0001  ZZZ=              0.0000  XYY=             -0.0000
  XXY=             -0.0000  XXZ=             -0.0000  XZZ=             -0.0000  YZZ=              0.0000
  YYZ=              0.0000  XYZ=              0.0000
 Hexadecapole moment (field-independent basis, Debye-Ang**3):
 XXXX=            -14.1581 YYYY=           -148.8771 ZZZZ=            -12.3389 XXXY=              0.0000
 XXXZ=              0.0000 YYYX=             -0.0000 YYYZ=              0.0000 ZZZX=              0.0000
 ZZZY=             -0.0000 XXYY=            -37.9296 XXZZ=             -4.9952 YYZZ=            -84.9672
 XXYZ=             -0.0000 YYXZ=             -0.0000 ZZXY=             -0.0000
 N-N= 3.850955816633D+01 E-N=-4.408987167253D+02  KE= 1.531088518370D+02
 Symmetry A'   KE= 1.439946831027D+02
 Symmetry A"   KE= 9.114168734323D+00
 Variable Step   Value    
 -------- ---- -----------
     6       1    4.272881
    13       0    2.186278
 ---------------------------------------------------------------------------------------------------
                            Z-MATRIX (ANGSTROMS AND DEGREES)
   CD    Cent   Atom    N1       Length/X        N2       Alpha/Y        N3        Beta/Z          J
 ---------------------------------------------------------------------------------------------------
      1      1  O 
      2      2  H        1   0.970000(     1)
      3      3  H        1   0.970000(     2)      2  109.471(     9)
      4      4  O        1   4.600000(     3)      2  125.265(    10)      3  180.000(    16)      0
      5      5  H        4   0.970000(     4)      1  125.265(    11)      2    0.000(    17)      0
      6      6  H        4   0.970000(     5)      1  125.265(    12)      2  180.000(    18)      0
      7         X        1   2.261111(     6)      2  125.265(    13)      3  180.000(    19)      0
      8      7  H        7   0.364980(     7)      1   90.000(    14)      2    0.000(    20)      0
      9      8  H        7   0.364980(     8)      1   90.000(    15)      2  180.000(    21)      0
 ---------------------------------------------------------------------------------------------------
                         Z-Matrix orientation:                         
 ---------------------------------------------------------------------
 Center     Atomic      Atomic             Coordinates (Angstroms)
 Number     Number       Type             X           Y           Z
 ---------------------------------------------------------------------
      1          8           0        0.000000    0.000000    0.000000
      2          1           0        0.000000    0.000000    0.970000
      3          1           0        0.914525    0.000000   -0.323333
      4          8           0       -3.755879   -0.000000   -2.655818
      5          1           0       -4.670405   -0.000000   -2.332489
      6          1           0       -3.755879   -0.000000   -3.625818
      7         -1           0       -1.846187   -0.000000   -1.305457
      8          1           0       -2.056909   -0.000000   -1.007452
      9          1           0       -1.635465   -0.000000   -1.603461
 ---------------------------------------------------------------------
                    Distance matrix (angstroms):
                    1          2          3          4          5
     1  O    0.000000
     2  H    0.970000   0.000000
     3  H    0.970000   1.584003   0.000000
     4  O    4.600000   5.220459   5.220456   0.000000
     5  H    5.220459   5.720063   5.935330   0.970000   0.000000
     6  H    5.220459   5.935333   5.720060   0.970000   1.584001
     7  X    2.261111   2.930206   2.930204   2.338889   3.005163
     8  H    2.290378   2.853277   3.049170   2.367195   2.930202
     9  H    2.290378   3.049172   2.853274   2.367195   3.121273
                    6          7          8          9
     6  H    0.000000
     7  X    3.005163   0.000000
     8  H    3.121273   0.364980   0.000000
     9  H    2.930202   0.364980   0.729960   0.000000
 Stoichiometry    H6O2
 Framework group  CS[SG(H6O2)]
 Deg. of freedom    13
 Full point group                 CS      NOp   2
 Largest Abelian subgroup         CS      NOp   2
 Largest concise Abelian subgroup C1      NOp   1
                         Standard orientation:                         
 ---------------------------------------------------------------------
 Center     Atomic      Atomic             Coordinates (Angstroms)
 Number     Number       Type             X           Y           Z
 ---------------------------------------------------------------------
      1          8           0        0.000000   -2.296465    0.000000
      2          1           0        0.792001   -2.856496    0.000000
      3          1           0       -0.792003   -2.856493    0.000000
      4          8           0        0.000000    2.303535    0.000000
      5          1           0        0.792001    2.863567    0.000000
      6          1           0       -0.792001    2.863567    0.000000
      7          1           0        0.364980   -0.035354    0.000000
      8          1           0       -0.364980   -0.035354    0.000000
 ---------------------------------------------------------------------
 Rotational constants (GHZ):         180.6730268           2.4993496           2.4652465
 Standard basis: 6-31G (6D, 7F)
 There are    26 symmetry adapted cartesian basis functions of A'  symmetry.
 There are     4 symmetry adapted cartesian basis functions of A"  symmetry.
 There are    26 symmetry adapted basis functions of A'  symmetry.
 There are     4 symmetry adapted basis functions of A"  symmetry.
    30 basis functions,    68 primitive gaussians,    30 cartesian basis functions
    11 alpha electrons       11 beta electrons
       nuclear repulsion energy        38.5117258317 Hartrees.
 NAtoms=    8 NActive=    8 NUniq=    8 SFac= 1.00D+00 NAtFMM=   60 NAOKFM=F Big=F
 Integral buffers will be    131072 words long.
 Raffenetti 1 integral format.
 Two-electron integral symmetry is turned on.
 One-electron integrals computed using PRISM.
 NBasis=    30 RedAO= T EigKep=  7.07D-02  NBF=    26     4
 NBsUse=    30 1.00D-06 EigRej= -1.00D+00 NBFU=    26     4
 Initial guess from the checkpoint file:  "2H2_H2_dummy_input_5.chk"
 B after Tr=     0.000000   -0.000000   -0.000000
         Rot=    1.000000   -0.000000   -0.000000    0.000000 Ang=   0.00 deg.
 Initial guess orbital symmetries:
       Occupied  (A') (A') (A') (A') (A') (A') (A') (A') (A") (A")
                 (A')
       Virtual   (A') (A') (A') (A') (A') (A') (A') (A') (A') (A')
                 (A") (A") (A') (A') (A') (A') (A') (A') (A')
 ExpMin= 1.61D-01 ExpMax= 5.48D+03 ExpMxC= 8.25D+02 IAcc=2 IRadAn=         4 AccDes= 0.00D+00
 Harris functional with IExCor=  205 and IRadAn=       4 diagonalized for initial guess.
 HarFok:  IExCor=  205 AccDes= 0.00D+00 IRadAn=         4 IDoV= 1 UseB2=F ITyADJ=14
 ICtDFT=  3500011 ScaDFX=  1.000000  1.000000  1.000000  1.000000
 FoFCou: FMM=F IPFlag=           0 FMFlag=      100000 FMFlg1=           0
         NFxFlg=           0 DoJE=T BraDBF=F KetDBF=T FulRan=T
         wScrn=  0.000000 ICntrl=       500 IOpCl=  0 I1Cent=   200000004 NGrid=           0
         NMat0=    1 NMatS0=      1 NMatT0=    0 NMatD0=    1 NMtDS0=    0 NMtDT0=    0
 Petite list used in FoFCou.
 Keep R1 ints in memory in symmetry-blocked form, NReq=2532539.
 Requested convergence on RMS density matrix=1.00D-08 within 128 cycles.
 Requested convergence on MAX density matrix=1.00D-06.
 Requested convergence on             energy=1.00D-06.
 No special actions if energy rises.
 SCF Done:  E(RHF) =  -153.076249441     A.U. after    7 cycles
            NFock=  7  Conv=0.65D-08     -V/T= 1.9998
 Variable Step   Value    
 -------- ---- -----------
     6       2    4.199391
    13       0    2.186278
 ---------------------------------------------------------------------------------------------------
                            Z-MATRIX (ANGSTROMS AND DEGREES)
   CD    Cent   Atom    N1       Length/X        N2       Alpha/Y        N3        Beta/Z          J
 ---------------------------------------------------------------------------------------------------
      1      1  O 
      2      2  H        1   0.970000(     1)
      3      3  H        1   0.970000(     2)      2  109.471(     9)
      4      4  O        1   4.600000(     3)      2  125.265(    10)      3  180.000(    16)      0
      5      5  H        4   0.970000(     4)      1  125.265(    11)      2    0.000(    17)      0
      6      6  H        4   0.970000(     5)      1  125.265(    12)      2  180.000(    18)      0
      7         X        1   2.222222(     6)      2  125.265(    13)      3  180.000(    19)      0
      8      7  H        7   0.364980(     7)      1   90.000(    14)      2    0.000(    20)      0
      9      8  H        7   0.364980(     8)      1   90.000(    15)      2  180.000(    21)      0
 ---------------------------------------------------------------------------------------------------
                         Z-Matrix orientation:                         
 ---------------------------------------------------------------------
 Center     Atomic      Atomic             Coordinates (Angstroms)
 Number     Number       Type             X           Y           Z
 ---------------------------------------------------------------------
      1          8           0        0.000000    0.000000    0.000000
      2          1           0        0.000000    0.000000    0.970000
      3          1           0        0.914525    0.000000   -0.323333
      4          8           0       -3.755879   -0.000000   -2.655818
      5          1           0       -4.670405   -0.000000   -2.332489
      6          1           0       -3.755879   -0.000000   -3.625818
      7         -1           0       -1.814434   -0.000000   -1.283004
      8          1           0       -2.025156   -0.000000   -0.984999
      9          1           0       -1.603712   -0.000000   -1.581008
 ---------------------------------------------------------------------
                    Distance matrix (angstroms):
                    1          2          3          4          5
     1  O    0.000000
     2  H    0.970000   0.000000
     3  H    0.970000   1.584003   0.000000
     4  O    4.600000   5.220459   5.220456   0.000000
     5  H    5.220459   5.720063   5.935330   0.970000   0.000000
     6  H    5.220459   5.935333   5.720060   0.970000   1.584001
     7  X    2.222222   2.892784   2.892781   2.377778   3.042694
     8  H    2.251995   2.814832   3.013225   2.405626   2.968682
     9  H    2.251995   3.013227   2.814829   2.405626   3.157424
                    6          7          8          9
     6  H    0.000000
     7  X    3.042694   0.000000
     8  H    3.157424   0.364980   0.000000
     9  H    2.968682   0.364980   0.729960   0.000000
 Stoichiometry    H6O2
 Framework group  CS[SG(H6O2)]
 Deg. of freedom    13
 Full point group                 CS      NOp   2
 Largest Abelian subgroup         CS      NOp   2
 Largest concise Abelian subgroup C1      NOp   1
                         Standard orientation:                         
 ---------------------------------------------------------------------
 Center     Atomic      Atomic             Coordinates (Angstroms)
 Number     Number       Type             X           Y           Z
 ---------------------------------------------------------------------
      1          8           0        0.000000   -2.292929   -0.000000
      2          1           0        0.792001   -2.852961   -0.000000
      3          1           0       -0.792003   -2.852958   -0.000000
      4          8           0        0.000000    2.307071    0.000000
      5          1           0        0.792001    2.867102    0.000000
      6          1           0       -0.792001    2.867102    0.000000
      7          1           0        0.364980   -0.070707    0.000000
      8          1           0       -0.364980   -0.070707   -0.000000
 ---------------------------------------------------------------------
 Rotational constants (GHZ):         180.6730268           2.4992425           2.4651423
 Standard basis: 6-31G (6D, 7F)
 There are    26 symmetry adapted cartesian basis functions of A'  symmetry.
 There are     4 symmetry adapted cartesian basis functions of A"  symmetry.
 There are    26 symmetry adapted basis functions of A'  symmetry.
 There are     4 symmetry adapted basis functions of A"  symmetry.
    30 basis functions,    68 primitive gaussians,    30 cartesian basis functions
    11 alpha electrons       11 beta electrons
       nuclear repulsion energy        38.5182351297 Hartrees.
 NAtoms=    8 NActive=    8 NUniq=    8 SFac= 1.00D+00 NAtFMM=   60 NAOKFM=F Big=F
 Integral buffers will be    131072 words long.
 Raffenetti 1 integral format.
 Two-electron integral symmetry is turned on.
 One-electron integrals computed using PRISM.
 NBasis=    30 RedAO= T EigKep=  7.07D-02  NBF=    26     4
 NBsUse=    30 1.00D-06 EigRej= -1.00D+00 NBFU=    26     4
 Initial guess from the checkpoint file:  "2H2_H2_dummy_input_5.chk"
 B after Tr=    -0.000000   -0.000000    0.000000
         Rot=    1.000000    0.000000    0.000000    0.000000 Ang=   0.00 deg.
 Initial guess orbital symmetries:
       Occupied  (A') (A') (A') (A') (A') (A') (A') (A') (A") (A")
                 (A')
       Virtual   (A') (A') (A') (A') (A') (A') (A') (A') (A') (A')
                 (A") (A") (A') (A') (A') (A') (A') (A') (A')
 ExpMin= 1.61D-01 ExpMax= 5.48D+03 ExpMxC= 8.25D+02 IAcc=2 IRadAn=         4 AccDes= 0.00D+00
 Harris functional with IExCor=  205 and IRadAn=       4 diagonalized for initial guess.
 HarFok:  IExCor=  205 AccDes= 0.00D+00 IRadAn=         4 IDoV= 1 UseB2=F ITyADJ=14
 ICtDFT=  3500011 ScaDFX=  1.000000  1.000000  1.000000  1.000000
 FoFCou: FMM=F IPFlag=           0 FMFlag=      100000 FMFlg1=           0
         NFxFlg=           0 DoJE=T BraDBF=F KetDBF=T FulRan=T
         wScrn=  0.000000 ICntrl=       500 IOpCl=  0 I1Cent=   200000004 NGrid=           0
         NMat0=    1 NMatS0=      1 NMatT0=    0 NMatD0=    1 NMtDS0=    0 NMtDT0=    0
 Petite list used in FoFCou.
 Keep R1 ints in memory in symmetry-blocked form, NReq=2532539.
 Requested convergence on RMS density matrix=1.00D-08 within 128 cycles.
 Requested convergence on MAX density matrix=1.00D-06.
 Requested convergence on             energy=1.00D-06.
 No special actions if energy rises.
 SCF Done:  E(RHF) =  -153.075875720     A.U. after    7 cycles
            NFock=  7  Conv=0.66D-08     -V/T= 1.9998
 Variable Step   Value    
 -------- ---- -----------
     6       3    4.125901
    13       0    2.186278
 ---------------------------------------------------------------------------------------------------
                            Z-MATRIX (ANGSTROMS AND DEGREES)
   CD    Cent   Atom    N1       Length/X        N2       Alpha/Y        N3        Beta/Z          J
 ---------------------------------------------------------------------------------------------------
      1      1  O 
      2      2  H        1   0.970000(     1)
      3      3  H        1   0.970000(     2)      2  109.471(     9)
      4      4  O        1   4.600000(     3)      2  125.265(    10)      3  180.000(    16)      0
      5      5  H        4   0.970000(     4)      1  125.265(    11)      2    0.000(    17)      0
      6      6  H        4   0.970000(     5)      1  125.265(    12)      2  180.000(    18)      0
      7         X        1   2.183333(     6)      2  125.265(    13)      3  180.000(    19)      0
      8      7  H        7   0.364980(     7)      1   90.000(    14)      2    0.000(    20)      0
      9      8  H        7   0.364980(     8)      1   90.000(    15)      2  180.000(    21)      0
 ---------------------------------------------------------------------------------------------------
                         Z-Matrix orientation:                         
 ---------------------------------------------------------------------
 Center     Atomic      Atomic             Coordinates (Angstroms)
 Number     Number       Type             X           Y           Z
 ---------------------------------------------------------------------
      1          8           0        0.000000    0.000000    0.000000
      2          1           0        0.000000    0.000000    0.970000
      3          1           0        0.914525    0.000000   -0.323333
      4          8           0       -3.755879   -0.000000   -2.655818
      5          1           0       -4.670405   -0.000000   -2.332489
      6          1           0       -3.755879   -0.000000   -3.625818
      7         -1           0       -1.782682   -0.000000   -1.260551
      8          1           0       -1.993403   -0.000000   -0.962547
      9          1           0       -1.571960   -0.000000   -1.558556
 ---------------------------------------------------------------------
                    Distance matrix (angstroms):
                    1          2          3          4          5
     1  O    0.000000
     2  H    0.970000   0.000000
     3  H    0.970000   1.584003   0.000000
     4  O    4.600000   5.220459   5.220456   0.000000
     5  H    5.220459   5.720063   5.935330   0.970000   0.000000
     6  H    5.220459   5.935333   5.720060   0.970000   1.584001
     7  X    2.183333   2.855401   2.855398   2.416667   3.080259
     8  H    2.213629   2.776400   2.977355   2.444072   3.007171
     9  H    2.213629   2.977356   2.776397   2.444072   3.193640
                    6          7          8          9
     6  H    0.000000
     7  X    3.080259   0.000000
     8  H    3.193640   0.364980   0.000000
     9  H    3.007171   0.364980   0.729960   0.000000
 Stoichiometry    H6O2
 Framework group  CS[SG(H6O2)]
 Deg. of freedom    13
 Full point group                 CS      NOp   2
 Largest Abelian subgroup         CS      NOp   2
 Largest concise Abelian subgroup C1      NOp   1
                         Standard orientation:                         
 ---------------------------------------------------------------------
 Center     Atomic      Atomic             Coordinates (Angstroms)
 Number     Number       Type             X           Y           Z
 ---------------------------------------------------------------------
      1          8           0        0.000000   -2.289394    0.000000
      2          1           0        0.792001   -2.849425    0.000000
      3          1           0       -0.792003   -2.849422    0.000000
      4          8           0        0.000000    2.310606   -0.000000
      5          1           0        0.792001    2.870637   -0.000000
      6          1           0       -0.792001    2.870637   -0.000000
      7          1           0        0.364980   -0.106061   -0.000000
      8          1           0       -0.364980   -0.106061    0.000000
 ---------------------------------------------------------------------
 Rotational constants (GHZ):         180.6730268           2.4990642           2.4649688
 Standard basis: 6-31G (6D, 7F)
 There are    26 symmetry adapted cartesian basis functions of A'  symmetry.
 There are     4 symmetry adapted cartesian basis functions of A"  symmetry.
 There are    26 symmetry adapted basis functions of A'  symmetry.
 There are     4 symmetry adapted basis functions of A"  symmetry.
    30 basis functions,    68 primitive gaussians,    30 cartesian basis functions
    11 alpha electrons       11 beta electrons
       nuclear repulsion energy        38.5291050463 Hartrees.
 NAtoms=    8 NActive=    8 NUniq=    8 SFac= 1.00D+00 NAtFMM=   60 NAOKFM=F Big=F
 Integral buffers will be    131072 words long.
 Raffenetti 1 integral format.
 Two-electron integral symmetry is turned on.
 One-electron integrals computed using PRISM.
 NBasis=    30 RedAO= T EigKep=  7.07D-02  NBF=    26     4
 NBsUse=    30 1.00D-06 EigRej= -1.00D+00 NBFU=    26     4
 Initial guess from the checkpoint file:  "2H2_H2_dummy_input_5.chk"
 B after Tr=    -0.000000   -0.000000    0.000000
         Rot=    1.000000   -0.000000    0.000000    0.000000 Ang=   0.00 deg.
 Initial guess orbital symmetries:
       Occupied  (A') (A') (A') (A') (A') (A') (A') (A') (A") (A")
                 (A')
       Virtual   (A') (A') (A') (A') (A') (A') (A') (A') (A') (A')
                 (A") (A") (A') (A') (A') (A') (A') (A') (A')
 ExpMin= 1.61D-01 ExpMax= 5.48D+03 ExpMxC= 8.25D+02 IAcc=2 IRadAn=         4 AccDes= 0.00D+00
 Harris functional with IExCor=  205 and IRadAn=       4 diagonalized for initial guess.
 HarFok:  IExCor=  205 AccDes= 0.00D+00 IRadAn=         4 IDoV= 1 UseB2=F ITyADJ=14
 ICtDFT=  3500011 ScaDFX=  1.000000  1.000000  1.000000  1.000000
 FoFCou: FMM=F IPFlag=           0 FMFlag=      100000 FMFlg1=           0
         NFxFlg=           0 DoJE=T BraDBF=F KetDBF=T FulRan=T
         wScrn=  0.000000 ICntrl=       500 IOpCl=  0 I1Cent=   200000004 NGrid=           0
         NMat0=    1 NMatS0=      1 NMatT0=    0 NMatD0=    1 NMtDS0=    0 NMtDT0=    0
 Petite list used in FoFCou.
 Keep R1 ints in memory in symmetry-blocked form, NReq=2532539.
 Requested convergence on RMS density matrix=1.00D-08 within 128 cycles.
 Requested convergence on MAX density matrix=1.00D-06.
 Requested convergence on             energy=1.00D-06.
 No special actions if energy rises.
 SCF Done:  E(RHF) =  -153.075246346     A.U. after    7 cycles
            NFock=  7  Conv=0.69D-08     -V/T= 1.9997
 Variable Step   Value    
 -------- ---- -----------
     6       4    4.052412
    13       0    2.186278
 ---------------------------------------------------------------------------------------------------
                            Z-MATRIX (ANGSTROMS AND DEGREES)
   CD    Cent   Atom    N1       Length/X        N2       Alpha/Y        N3        Beta/Z          J
 ---------------------------------------------------------------------------------------------------
      1      1  O 
      2      2  H        1   0.970000(     1)
      3      3  H        1   0.970000(     2)      2  109.471(     9)
      4      4  O        1   4.600000(     3)      2  125.265(    10)      3  180.000(    16)      0
      5      5  H        4   0.970000(     4)      1  125.265(    11)      2    0.000(    17)      0
      6      6  H        4   0.970000(     5)      1  125.265(    12)      2  180.000(    18)      0
      7         X        1   2.144444(     6)      2  125.265(    13)      3  180.000(    19)      0
      8      7  H        7   0.364980(     7)      1   90.000(    14)      2    0.000(    20)      0
      9      8  H        7   0.364980(     8)      1   90.000(    15)      2  180.000(    21)      0
 ---------------------------------------------------------------------------------------------------
                         Z-Matrix orientation:                         
 ---------------------------------------------------------------------
 Center     Atomic      Atomic             Coordinates (Angstroms)
 Number     Number       Type             X           Y           Z
 ---------------------------------------------------------------------
      1          8           0        0.000000    0.000000    0.000000
      2          1           0        0.000000    0.000000    0.970000
      3          1           0        0.914525    0.000000   -0.323333
      4          8           0       -3.755879   -0.000000   -2.655818
      5          1           0       -4.670405   -0.000000   -2.332489
      6          1           0       -3.755879   -0.000000   -3.625818
      7         -1           0       -1.750929   -0.000000   -1.238099
      8          1           0       -1.961651   -0.000000   -0.940094
      9          1           0       -1.540207   -0.000000   -1.536103
 ---------------------------------------------------------------------
                    Distance matrix (angstroms):
                    1          2          3          4          5
     1  O    0.000000
     2  H    0.970000   0.000000
     3  H    0.970000   1.584003   0.000000
     4  O    4.600000   5.220459   5.220456   0.000000
     5  H    5.220459   5.720063   5.935330   0.970000   0.000000
     6  H    5.220459   5.935333   5.720060   0.970000   1.584001
     7  X    2.144444   2.818058   2.818056   2.455556   3.117857
     8  H    2.175282   2.737980   2.941561   2.482532   3.045671
     9  H    2.175282   2.941563   2.737977   2.482532   3.229918
                    6          7          8          9
     6  H    0.000000
     7  X    3.117857   0.000000
     8  H    3.229918   0.364980   0.000000
     9  H    3.045671   0.364980   0.729960   0.000000
 Stoichiometry    H6O2
 Framework group  CS[SG(H6O2)]
 Deg. of freedom    13
 Full point group                 CS      NOp   2
 Largest Abelian subgroup         CS      NOp   2
 Largest concise Abelian subgroup C1      NOp   1
                         Standard orientation:                         
 ---------------------------------------------------------------------
 Center     Atomic      Atomic             Coordinates (Angstroms)
 Number     Number       Type             X           Y           Z
 ---------------------------------------------------------------------
      1          8           0        0.000000   -2.285859    0.000000
      2          1           0        0.792001   -2.845890    0.000000
      3          1           0       -0.792003   -2.845887    0.000000
      4          8           0        0.000000    2.314141    0.000000
      5          1           0        0.792001    2.874173    0.000000
      6          1           0       -0.792001    2.874173    0.000000
      7          1           0        0.364980   -0.141415    0.000000
      8          1           0       -0.364980   -0.141415    0.000000
 ---------------------------------------------------------------------
 Rotational constants (GHZ):         180.6730268           2.4988145           2.4647258
 Standard basis: 6-31G (6D, 7F)
 There are    26 symmetry adapted cartesian basis functions of A'  symmetry.
 There are     4 symmetry adapted cartesian basis functions of A"  symmetry.
 There are    26 symmetry adapted basis functions of A'  symmetry.
 There are     4 symmetry adapted basis functions of A"  symmetry.
    30 basis functions,    68 primitive gaussians,    30 cartesian basis functions
    11 alpha electrons       11 beta electrons
       nuclear repulsion energy        38.5443673727 Hartrees.
 NAtoms=    8 NActive=    8 NUniq=    8 SFac= 1.00D+00 NAtFMM=   60 NAOKFM=F Big=F
 Integral buffers will be    131072 words long.
 Raffenetti 1 integral format.
 Two-electron integral symmetry is turned on.
 One-electron integrals computed using PRISM.
 NBasis=    30 RedAO= T EigKep=  7.07D-02  NBF=    26     4
 NBsUse=    30 1.00D-06 EigRej= -1.00D+00 NBFU=    26     4
 Initial guess from the checkpoint file:  "2H2_H2_dummy_input_5.chk"
 B after Tr=     0.000000    0.000000    0.000000
         Rot=    1.000000   -0.000000    0.000000    0.000000 Ang=   0.00 deg.
 Initial guess orbital symmetries:
       Occupied  (A') (A') (A') (A') (A') (A') (A') (A') (A") (A")
                 (A')
       Virtual   (A') (A') (A') (A') (A') (A') (A') (A') (A') (A')
                 (A") (A") (A') (A') (A') (A') (A') (A') (A')
 ExpMin= 1.61D-01 ExpMax= 5.48D+03 ExpMxC= 8.25D+02 IAcc=2 IRadAn=         4 AccDes= 0.00D+00
 Harris functional with IExCor=  205 and IRadAn=       4 diagonalized for initial guess.
 HarFok:  IExCor=  205 AccDes= 0.00D+00 IRadAn=         4 IDoV= 1 UseB2=F ITyADJ=14
 ICtDFT=  3500011 ScaDFX=  1.000000  1.000000  1.000000  1.000000
 FoFCou: FMM=F IPFlag=           0 FMFlag=      100000 FMFlg1=           0
         NFxFlg=           0 DoJE=T BraDBF=F KetDBF=T FulRan=T
         wScrn=  0.000000 ICntrl=       500 IOpCl=  0 I1Cent=   200000004 NGrid=           0
         NMat0=    1 NMatS0=      1 NMatT0=    0 NMatD0=    1 NMtDS0=    0 NMtDT0=    0
 Petite list used in FoFCou.
 Keep R1 ints in memory in symmetry-blocked form, NReq=2532539.
 Requested convergence on RMS density matrix=1.00D-08 within 128 cycles.
 Requested convergence on MAX density matrix=1.00D-06.
 Requested convergence on             energy=1.00D-06.
 No special actions if energy rises.
 SCF Done:  E(RHF) =  -153.074351492     A.U. after    7 cycles
            NFock=  7  Conv=0.73D-08     -V/T= 1.9997
 Variable Step   Value    
 -------- ---- -----------
     6       5    3.978922
    13       0    2.186278
 ---------------------------------------------------------------------------------------------------
                            Z-MATRIX (ANGSTROMS AND DEGREES)
   CD    Cent   Atom    N1       Length/X        N2       Alpha/Y        N3        Beta/Z          J
 ---------------------------------------------------------------------------------------------------
      1      1  O 
      2      2  H        1   0.970000(     1)
      3      3  H        1   0.970000(     2)      2  109.471(     9)
      4      4  O        1   4.600000(     3)      2  125.265(    10)      3  180.000(    16)      0
      5      5  H        4   0.970000(     4)      1  125.265(    11)      2    0.000(    17)      0
      6      6  H        4   0.970000(     5)      1  125.265(    12)      2  180.000(    18)      0
      7         X        1   2.105555(     6)      2  125.265(    13)      3  180.000(    19)      0
      8      7  H        7   0.364980(     7)      1   90.000(    14)      2    0.000(    20)      0
      9      8  H        7   0.364980(     8)      1   90.000(    15)      2  180.000(    21)      0
 ---------------------------------------------------------------------------------------------------
                         Z-Matrix orientation:                         
 ---------------------------------------------------------------------
 Center     Atomic      Atomic             Coordinates (Angstroms)
 Number     Number       Type             X           Y           Z
 ---------------------------------------------------------------------
      1          8           0        0.000000    0.000000    0.000000
      2          1           0        0.000000    0.000000    0.970000
      3          1           0        0.914525    0.000000   -0.323333
      4          8           0       -3.755879   -0.000000   -2.655818
      5          1           0       -4.670405   -0.000000   -2.332489
      6          1           0       -3.755879   -0.000000   -3.625818
      7         -1           0       -1.719176   -0.000000   -1.215646
      8          1           0       -1.929898   -0.000000   -0.917642
      9          1           0       -1.508454   -0.000000   -1.513651
 ---------------------------------------------------------------------
                    Distance matrix (angstroms):
                    1          2          3          4          5
     1  O    0.000000
     2  H    0.970000   0.000000
     3  H    0.970000   1.584003   0.000000
     4  O    4.600000   5.220459   5.220456   0.000000
     5  H    5.220459   5.720063   5.935330   0.970000   0.000000
     6  H    5.220459   5.935333   5.720060   0.970000   1.584001
     7  X    2.105555   2.780758   2.780756   2.494445   3.155486
     8  H    2.136954   2.699573   2.905846   2.521005   3.084181
     9  H    2.136954   2.905848   2.699571   2.521005   3.266256
                    6          7          8          9
     6  H    0.000000
     7  X    3.155486   0.000000
     8  H    3.266256   0.364980   0.000000
     9  H    3.084181   0.364980   0.729960   0.000000
 Stoichiometry    H6O2
 Framework group  CS[SG(H6O2)]
 Deg. of freedom    13
 Full point group                 CS      NOp   2
 Largest Abelian subgroup         CS      NOp   2
 Largest concise Abelian subgroup C1      NOp   1
                         Standard orientation:                         
 ---------------------------------------------------------------------
 Center     Atomic      Atomic             Coordinates (Angstroms)
 Number     Number       Type             X           Y           Z
 ---------------------------------------------------------------------
      1          8           0        0.000000   -2.282323    0.000000
      2          1           0        0.792001   -2.842355    0.000000
      3          1           0       -0.792003   -2.842352   -0.000000
      4          8           0        0.000000    2.317677    0.000000
      5          1           0        0.792001    2.877708    0.000000
      6          1           0       -0.792001    2.877708   -0.000000
      7          1           0        0.364980   -0.176768    0.000000
      8          1           0       -0.364980   -0.176768   -0.000000
 ---------------------------------------------------------------------
 Rotational constants (GHZ):         180.6730268           2.4984935           2.4644136
 Standard basis: 6-31G (6D, 7F)
 There are    26 symmetry adapted cartesian basis functions of A'  symmetry.
 There are     4 symmetry adapted cartesian basis functions of A"  symmetry.
 There are    26 symmetry adapted basis functions of A'  symmetry.
 There are     4 symmetry adapted basis functions of A"  symmetry.
    30 basis functions,    68 primitive gaussians,    30 cartesian basis functions
    11 alpha electrons       11 beta electrons
       nuclear repulsion energy        38.5640669292 Hartrees.
 NAtoms=    8 NActive=    8 NUniq=    8 SFac= 1.00D+00 NAtFMM=   60 NAOKFM=F Big=F
 Integral buffers will be    131072 words long.
 Raffenetti 1 integral format.
 Two-electron integral symmetry is turned on.
 One-electron integrals computed using PRISM.
 NBasis=    30 RedAO= T EigKep=  7.07D-02  NBF=    26     4
 NBsUse=    30 1.00D-06 EigRej= -1.00D+00 NBFU=    26     4
 Initial guess from the checkpoint file:  "2H2_H2_dummy_input_5.chk"
 B after Tr=    -0.000000    0.000000    0.000000
         Rot=    1.000000   -0.000000   -0.000000    0.000000 Ang=   0.00 deg.
 Initial guess orbital symmetries:
       Occupied  (A') (A') (A') (A') (A') (A') (A') (A') (A") (A")
                 (A')
       Virtual   (A') (A') (A') (A') (A') (A') (A') (A') (A') (A')
                 (A") (A") (A') (A') (A') (A') (A') (A') (A')
 ExpMin= 1.61D-01 ExpMax= 5.48D+03 ExpMxC= 8.25D+02 IAcc=2 IRadAn=         4 AccDes= 0.00D+00
 Harris functional with IExCor=  205 and IRadAn=       4 diagonalized for initial guess.
 HarFok:  IExCor=  205 AccDes= 0.00D+00 IRadAn=         4 IDoV= 1 UseB2=F ITyADJ=14
 ICtDFT=  3500011 ScaDFX=  1.000000  1.000000  1.000000  1.000000
 FoFCou: FMM=F IPFlag=           0 FMFlag=      100000 FMFlg1=           0
         NFxFlg=           0 DoJE=T BraDBF=F KetDBF=T FulRan=T
         wScrn=  0.000000 ICntrl=       500 IOpCl=  0 I1Cent=   200000004 NGrid=           0
         NMat0=    1 NMatS0=      1 NMatT0=    0 NMatD0=    1 NMtDS0=    0 NMtDT0=    0
 Petite list used in FoFCou.
 Keep R1 ints in memory in symmetry-blocked form, NReq=2532539.
 Requested convergence on RMS density matrix=1.00D-08 within 128 cycles.
 Requested convergence on MAX density matrix=1.00D-06.
 Requested convergence on             energy=1.00D-06.
 No special actions if energy rises.
 SCF Done:  E(RHF) =  -153.073177261     A.U. after    7 cycles
            NFock=  7  Conv=0.79D-08     -V/T= 1.9997
 Variable Step   Value    
 -------- ---- -----------
     6       6    3.905433
    13       0    2.186278
 ---------------------------------------------------------------------------------------------------
                            Z-MATRIX (ANGSTROMS AND DEGREES)
   CD    Cent   Atom    N1       Length/X        N2       Alpha/Y        N3        Beta/Z          J
 ---------------------------------------------------------------------------------------------------
      1      1  O 
      2      2  H        1   0.970000(     1)
      3      3  H        1   0.970000(     2)      2  109.471(     9)
      4      4  O        1   4.600000(     3)      2  125.265(    10)      3  180.000(    16)      0
      5      5  H        4   0.970000(     4)      1  125.265(    11)      2    0.000(    17)      0
      6      6  H        4   0.970000(     5)      1  125.265(    12)      2  180.000(    18)      0
      7         X        1   2.066666(     6)      2  125.265(    13)      3  180.000(    19)      0
      8      7  H        7   0.364980(     7)      1   90.000(    14)      2    0.000(    20)      0
      9      8  H        7   0.364980(     8)      1   90.000(    15)      2  180.000(    21)      0
 ---------------------------------------------------------------------------------------------------
                         Z-Matrix orientation:                         
 ---------------------------------------------------------------------
 Center     Atomic      Atomic             Coordinates (Angstroms)
 Number     Number       Type             X           Y           Z
 ---------------------------------------------------------------------
      1          8           0        0.000000    0.000000    0.000000
      2          1           0        0.000000    0.000000    0.970000
      3          1           0        0.914525    0.000000   -0.323333
      4          8           0       -3.755879   -0.000000   -2.655818
      5          1           0       -4.670405   -0.000000   -2.332489
      6          1           0       -3.755879   -0.000000   -3.625818
      7         -1           0       -1.687423   -0.000000   -1.193193
      8          1           0       -1.898145   -0.000000   -0.895189
      9          1           0       -1.476702   -0.000000   -1.491198
 ---------------------------------------------------------------------
                    Distance matrix (angstroms):
                    1          2          3          4          5
     1  O    0.000000
     2  H    0.970000   0.000000
     3  H    0.970000   1.584003   0.000000
     4  O    4.600000   5.220459   5.220456   0.000000
     5  H    5.220459   5.720063   5.935330   0.970000   0.000000
     6  H    5.220459   5.935333   5.720060   0.970000   1.584001
     7  X    2.066666   2.743502   2.743500   2.533334   3.193145
     8  H    2.098647   2.661181   2.870215   2.559490   3.122700
     9  H    2.098647   2.870216   2.661179   2.559490   3.302652
                    6          7          8          9
     6  H    0.000000
     7  X    3.193145   0.000000
     8  H    3.302652   0.364980   0.000000
     9  H    3.122700   0.364980   0.729960   0.000000
 Stoichiometry    H6O2
 Framework group  CS[SG(H6O2)]
 Deg. of freedom    13
 Full point group                 CS      NOp   2
 Largest Abelian subgroup         CS      NOp   2
 Largest concise Abelian subgroup C1      NOp   1
                         Standard orientation:                         
 ---------------------------------------------------------------------
 Center     Atomic      Atomic             Coordinates (Angstroms)
 Number     Number       Type             X           Y           Z
 ---------------------------------------------------------------------
      1          8           0        0.000000   -2.278788   -0.000000
      2          1           0        0.792001   -2.838819   -0.000000
      3          1           0       -0.792003   -2.838816   -0.000000
      4          8           0        0.000000    2.321212    0.000000
      5          1           0        0.792001    2.881243    0.000000
      6          1           0       -0.792001    2.881243    0.000000
      7          1           0        0.364980   -0.212122    0.000000
      8          1           0       -0.364980   -0.212122   -0.000000
 ---------------------------------------------------------------------
 Rotational constants (GHZ):         180.6730268           2.4981013           2.4640320
 Standard basis: 6-31G (6D, 7F)
 There are    26 symmetry adapted cartesian basis functions of A'  symmetry.
 There are     4 symmetry adapted cartesian basis functions of A"  symmetry.
 There are    26 symmetry adapted basis functions of A'  symmetry.
 There are     4 symmetry adapted basis functions of A"  symmetry.
    30 basis functions,    68 primitive gaussians,    30 cartesian basis functions
    11 alpha electrons       11 beta electrons
       nuclear repulsion energy        38.5882618825 Hartrees.
 NAtoms=    8 NActive=    8 NUniq=    8 SFac= 1.00D+00 NAtFMM=   60 NAOKFM=F Big=F
 Integral buffers will be    131072 words long.
 Raffenetti 1 integral format.
 Two-electron integral symmetry is turned on.
 One-electron integrals computed using PRISM.
 NBasis=    30 RedAO= T EigKep=  7.07D-02  NBF=    26     4
 NBsUse=    30 1.00D-06 EigRej= -1.00D+00 NBFU=    26     4
 Initial guess from the checkpoint file:  "2H2_H2_dummy_input_5.chk"
 B after Tr=     0.000000   -0.000000   -0.000000
         Rot=    1.000000   -0.000000   -0.000000    0.000000 Ang=   0.00 deg.
 Initial guess orbital symmetries:
       Occupied  (A') (A') (A') (A') (A') (A') (A') (A') (A") (A")
                 (A')
       Virtual   (A') (A') (A') (A') (A') (A') (A') (A') (A') (A')
                 (A") (A") (A') (A') (A') (A') (A') (A') (A')
 ExpMin= 1.61D-01 ExpMax= 5.48D+03 ExpMxC= 8.25D+02 IAcc=2 IRadAn=         4 AccDes= 0.00D+00
 Harris functional with IExCor=  205 and IRadAn=       4 diagonalized for initial guess.
 HarFok:  IExCor=  205 AccDes= 0.00D+00 IRadAn=         4 IDoV= 1 UseB2=F ITyADJ=14
 ICtDFT=  3500011 ScaDFX=  1.000000  1.000000  1.000000  1.000000
 FoFCou: FMM=F IPFlag=           0 FMFlag=      100000 FMFlg1=           0
         NFxFlg=           0 DoJE=T BraDBF=F KetDBF=T FulRan=T
         wScrn=  0.000000 ICntrl=       500 IOpCl=  0 I1Cent=   200000004 NGrid=           0
         NMat0=    1 NMatS0=      1 NMatT0=    0 NMatD0=    1 NMtDS0=    0 NMtDT0=    0
 Petite list used in FoFCou.
 Keep R1 ints in memory in symmetry-blocked form, NReq=2532587.
 Requested convergence on RMS density matrix=1.00D-08 within 128 cycles.
 Requested convergence on MAX density matrix=1.00D-06.
 Requested convergence on             energy=1.00D-06.
 No special actions if energy rises.
 SCF Done:  E(RHF) =  -153.071705551     A.U. after    7 cycles
            NFock=  7  Conv=0.89D-08     -V/T= 1.9996
 Variable Step   Value    
 -------- ---- -----------
     6       7    3.831943
    13       0    2.186278
 ---------------------------------------------------------------------------------------------------
                            Z-MATRIX (ANGSTROMS AND DEGREES)
   CD    Cent   Atom    N1       Length/X        N2       Alpha/Y        N3        Beta/Z          J
 ---------------------------------------------------------------------------------------------------
      1      1  O 
      2      2  H        1   0.970000(     1)
      3      3  H        1   0.970000(     2)      2  109.471(     9)
      4      4  O        1   4.600000(     3)      2  125.265(    10)      3  180.000(    16)      0
      5      5  H        4   0.970000(     4)      1  125.265(    11)      2    0.000(    17)      0
      6      6  H        4   0.970000(     5)      1  125.265(    12)      2  180.000(    18)      0
      7         X        1   2.027777(     6)      2  125.265(    13)      3  180.000(    19)      0
      8      7  H        7   0.364980(     7)      1   90.000(    14)      2    0.000(    20)      0
      9      8  H        7   0.364980(     8)      1   90.000(    15)      2  180.000(    21)      0
 ---------------------------------------------------------------------------------------------------
                         Z-Matrix orientation:                         
 ---------------------------------------------------------------------
 Center     Atomic      Atomic             Coordinates (Angstroms)
 Number     Number       Type             X           Y           Z
 ---------------------------------------------------------------------
      1          8           0        0.000000    0.000000    0.000000
      2          1           0        0.000000    0.000000    0.970000
      3          1           0        0.914525    0.000000   -0.323333
      4          8           0       -3.755879   -0.000000   -2.655818
      5          1           0       -4.670405   -0.000000   -2.332489
      6          1           0       -3.755879   -0.000000   -3.625818
      7         -1           0       -1.655671   -0.000000   -1.170741
      8          1           0       -1.866393   -0.000000   -0.872736
      9          1           0       -1.444949   -0.000000   -1.468745
 ---------------------------------------------------------------------
                    Distance matrix (angstroms):
                    1          2          3          4          5
     1  O    0.000000
     2  H    0.970000   0.000000
     3  H    0.970000   1.584003   0.000000
     4  O    4.600000   5.220459   5.220456   0.000000
     5  H    5.220459   5.720063   5.935330   0.970000   0.000000
     6  H    5.220459   5.935333   5.720060   0.970000   1.584001
     7  X    2.027777   2.706292   2.706290   2.572223   3.230833
     8  H    2.060362   2.622804   2.834668   2.597988   3.161228
     9  H    2.060362   2.834670   2.622801   2.597988   3.339105
                    6          7          8          9
     6  H    0.000000
     7  X    3.230833   0.000000
     8  H    3.339105   0.364980   0.000000
     9  H    3.161228   0.364980   0.729960   0.000000
 Stoichiometry    H6O2
 Framework group  CS[SG(H6O2)]
 Deg. of freedom    13
 Full point group                 CS      NOp   2
 Largest Abelian subgroup         CS      NOp   2
 Largest concise Abelian subgroup C1      NOp   1
                         Standard orientation:                         
 ---------------------------------------------------------------------
 Center     Atomic      Atomic             Coordinates (Angstroms)
 Number     Number       Type             X           Y           Z
 ---------------------------------------------------------------------
      1          8           0        0.000000   -2.275253    0.000000
      2          1           0        0.792001   -2.835284    0.000000
      3          1           0       -0.792003   -2.835281    0.000000
      4          8           0        0.000000    2.324747   -0.000000
      5          1           0        0.792001    2.884779   -0.000000
      6          1           0       -0.792001    2.884779   -0.000000
      7          1           0        0.364980   -0.247476    0.000000
      8          1           0       -0.364980   -0.247476    0.000000
 ---------------------------------------------------------------------
 Rotational constants (GHZ):         180.6730268           2.4976380           2.4635812
 Standard basis: 6-31G (6D, 7F)
 There are    26 symmetry adapted cartesian basis functions of A'  symmetry.
 There are     4 symmetry adapted cartesian basis functions of A"  symmetry.
 There are    26 symmetry adapted basis functions of A'  symmetry.
 There are     4 symmetry adapted basis functions of A"  symmetry.
    30 basis functions,    68 primitive gaussians,    30 cartesian basis functions
    11 alpha electrons       11 beta electrons
       nuclear repulsion energy        38.6170241605 Hartrees.
 NAtoms=    8 NActive=    8 NUniq=    8 SFac= 1.00D+00 NAtFMM=   60 NAOKFM=F Big=F
 Integral buffers will be    131072 words long.
 Raffenetti 1 integral format.
 Two-electron integral symmetry is turned on.
 One-electron integrals computed using PRISM.
 NBasis=    30 RedAO= T EigKep=  7.07D-02  NBF=    26     4
 NBsUse=    30 1.00D-06 EigRej= -1.00D+00 NBFU=    26     4
 Initial guess from the checkpoint file:  "2H2_H2_dummy_input_5.chk"
 B after Tr=    -0.000000    0.000000    0.000000
         Rot=    1.000000    0.000000    0.000000    0.000000 Ang=   0.00 deg.
 Initial guess orbital symmetries:
       Occupied  (A') (A') (A') (A') (A') (A') (A') (A') (A") (A")
                 (A')
       Virtual   (A') (A') (A') (A') (A') (A') (A') (A') (A') (A')
                 (A") (A") (A') (A') (A') (A') (A') (A') (A')
 ExpMin= 1.61D-01 ExpMax= 5.48D+03 ExpMxC= 8.25D+02 IAcc=2 IRadAn=         4 AccDes= 0.00D+00
 Harris functional with IExCor=  205 and IRadAn=       4 diagonalized for initial guess.
 HarFok:  IExCor=  205 AccDes= 0.00D+00 IRadAn=         4 IDoV= 1 UseB2=F ITyADJ=14
 ICtDFT=  3500011 ScaDFX=  1.000000  1.000000  1.000000  1.000000
 FoFCou: FMM=F IPFlag=           0 FMFlag=      100000 FMFlg1=           0
         NFxFlg=           0 DoJE=T BraDBF=F KetDBF=T FulRan=T
         wScrn=  0.000000 ICntrl=       500 IOpCl=  0 I1Cent=   200000004 NGrid=           0
         NMat0=    1 NMatS0=      1 NMatT0=    0 NMatD0=    1 NMtDS0=    0 NMtDT0=    0
 Petite list used in FoFCou.
 Keep R1 ints in memory in symmetry-blocked form, NReq=2532635.
 Requested convergence on RMS density matrix=1.00D-08 within 128 cycles.
 Requested convergence on MAX density matrix=1.00D-06.
 Requested convergence on             energy=1.00D-06.
 No special actions if energy rises.
 SCF Done:  E(RHF) =  -153.069913873     A.U. after    8 cycles
            NFock=  8  Conv=0.42D-08     -V/T= 1.9996
 Variable Step   Value    
 -------- ---- -----------
     6       8    3.758454
    13       0    2.186278
 ---------------------------------------------------------------------------------------------------
                            Z-MATRIX (ANGSTROMS AND DEGREES)
   CD    Cent   Atom    N1       Length/X        N2       Alpha/Y        N3        Beta/Z          J
 ---------------------------------------------------------------------------------------------------
      1      1  O 
      2      2  H        1   0.970000(     1)
      3      3  H        1   0.970000(     2)      2  109.471(     9)
      4      4  O        1   4.600000(     3)      2  125.265(    10)      3  180.000(    16)      0
      5      5  H        4   0.970000(     4)      1  125.265(    11)      2    0.000(    17)      0
      6      6  H        4   0.970000(     5)      1  125.265(    12)      2  180.000(    18)      0
      7         X        1   1.988888(     6)      2  125.265(    13)      3  180.000(    19)      0
      8      7  H        7   0.364980(     7)      1   90.000(    14)      2    0.000(    20)      0
      9      8  H        7   0.364980(     8)      1   90.000(    15)      2  180.000(    21)      0
 ---------------------------------------------------------------------------------------------------
                         Z-Matrix orientation:                         
 ---------------------------------------------------------------------
 Center     Atomic      Atomic             Coordinates (Angstroms)
 Number     Number       Type             X           Y           Z
 ---------------------------------------------------------------------
      1          8           0        0.000000    0.000000    0.000000
      2          1           0        0.000000    0.000000    0.970000
      3          1           0        0.914525    0.000000   -0.323333
      4          8           0       -3.755879   -0.000000   -2.655818
      5          1           0       -4.670405   -0.000000   -2.332489
      6          1           0       -3.755879   -0.000000   -3.625818
      7         -1           0       -1.623918   -0.000000   -1.148288
      8          1           0       -1.834640   -0.000000   -0.850284
      9          1           0       -1.413196   -0.000000   -1.446293
 ---------------------------------------------------------------------
                    Distance matrix (angstroms):
                    1          2          3          4          5
     1  O    0.000000
     2  H    0.970000   0.000000
     3  H    0.970000   1.584003   0.000000
     4  O    4.600000   5.220459   5.220456   0.000000
     5  H    5.220459   5.720063   5.935330   0.970000   0.000000
     6  H    5.220459   5.935333   5.720060   0.970000   1.584001
     7  X    1.988888   2.669130   2.669128   2.611112   3.268549
     8  H    2.022099   2.584441   2.799211   2.636497   3.199765
     9  H    2.022099   2.799213   2.584439   2.636497   3.375612
                    6          7          8          9
     6  H    0.000000
     7  X    3.268549   0.000000
     8  H    3.375612   0.364980   0.000000
     9  H    3.199765   0.364980   0.729960   0.000000
 Stoichiometry    H6O2
 Framework group  CS[SG(H6O2)]
 Deg. of freedom    13
 Full point group                 CS      NOp   2
 Largest Abelian subgroup         CS      NOp   2
 Largest concise Abelian subgroup C1      NOp   1
                         Standard orientation:                         
 ---------------------------------------------------------------------
 Center     Atomic      Atomic             Coordinates (Angstroms)
 Number     Number       Type             X           Y           Z
 ---------------------------------------------------------------------
      1          8           0        0.000000   -2.271717   -0.000000
      2          1           0        0.792001   -2.831749   -0.000000
      3          1           0       -0.792003   -2.831745   -0.000000
      4          8           0        0.000000    2.328283    0.000000
      5          1           0        0.792001    2.888314    0.000000
      6          1           0       -0.792001    2.888314    0.000000
      7          1           0        0.364980   -0.282829    0.000000
      8          1           0       -0.364980   -0.282829   -0.000000
 ---------------------------------------------------------------------
 Rotational constants (GHZ):         180.6730268           2.4971036           2.4630613
 Standard basis: 6-31G (6D, 7F)
 There are    26 symmetry adapted cartesian basis functions of A'  symmetry.
 There are     4 symmetry adapted cartesian basis functions of A"  symmetry.
 There are    26 symmetry adapted basis functions of A'  symmetry.
 There are     4 symmetry adapted basis functions of A"  symmetry.
    30 basis functions,    68 primitive gaussians,    30 cartesian basis functions
    11 alpha electrons       11 beta electrons
       nuclear repulsion energy        38.6504399692 Hartrees.
 NAtoms=    8 NActive=    8 NUniq=    8 SFac= 1.00D+00 NAtFMM=   60 NAOKFM=F Big=F
 Integral buffers will be    131072 words long.
 Raffenetti 1 integral format.
 Two-electron integral symmetry is turned on.
 One-electron integrals computed using PRISM.
 NBasis=    30 RedAO= T EigKep=  7.07D-02  NBF=    26     4
 NBsUse=    30 1.00D-06 EigRej= -1.00D+00 NBFU=    26     4
 Initial guess from the checkpoint file:  "2H2_H2_dummy_input_5.chk"
 B after Tr=     0.000000   -0.000000   -0.000000
         Rot=    1.000000    0.000000    0.000000    0.000000 Ang=   0.00 deg.
 Initial guess orbital symmetries:
       Occupied  (A') (A') (A') (A') (A') (A') (A') (A') (A") (A")
                 (A')
       Virtual   (A') (A') (A') (A') (A') (A') (A') (A') (A') (A')
                 (A") (A") (A') (A') (A') (A') (A') (A') (A')
 ExpMin= 1.61D-01 ExpMax= 5.48D+03 ExpMxC= 8.25D+02 IAcc=2 IRadAn=         4 AccDes= 0.00D+00
 Harris functional with IExCor=  205 and IRadAn=       4 diagonalized for initial guess.
 HarFok:  IExCor=  205 AccDes= 0.00D+00 IRadAn=         4 IDoV= 1 UseB2=F ITyADJ=14
 ICtDFT=  3500011 ScaDFX=  1.000000  1.000000  1.000000  1.000000
 FoFCou: FMM=F IPFlag=           0 FMFlag=      100000 FMFlg1=           0
         NFxFlg=           0 DoJE=T BraDBF=F KetDBF=T FulRan=T
         wScrn=  0.000000 ICntrl=       500 IOpCl=  0 I1Cent=   200000004 NGrid=           0
         NMat0=    1 NMatS0=      1 NMatT0=    0 NMatD0=    1 NMtDS0=    0 NMtDT0=    0
 Petite list used in FoFCou.
 Keep R1 ints in memory in symmetry-blocked form, NReq=2532635.
 Requested convergence on RMS density matrix=1.00D-08 within 128 cycles.
 Requested convergence on MAX density matrix=1.00D-06.
 Requested convergence on             energy=1.00D-06.
 No special actions if energy rises.
 SCF Done:  E(RHF) =  -153.067775128     A.U. after    8 cycles
            NFock=  8  Conv=0.50D-08     -V/T= 1.9995
 Variable Step   Value    
 -------- ---- -----------
     6       9    3.684964
    13       0    2.186278
 ---------------------------------------------------------------------------------------------------
                            Z-MATRIX (ANGSTROMS AND DEGREES)
   CD    Cent   Atom    N1       Length/X        N2       Alpha/Y        N3        Beta/Z          J
 ---------------------------------------------------------------------------------------------------
      1      1  O 
      2      2  H        1   0.970000(     1)
      3      3  H        1   0.970000(     2)      2  109.471(     9)
      4      4  O        1   4.600000(     3)      2  125.265(    10)      3  180.000(    16)      0
      5      5  H        4   0.970000(     4)      1  125.265(    11)      2    0.000(    17)      0
      6      6  H        4   0.970000(     5)      1  125.265(    12)      2  180.000(    18)      0
      7         X        1   1.949999(     6)      2  125.265(    13)      3  180.000(    19)      0
      8      7  H        7   0.364980(     7)      1   90.000(    14)      2    0.000(    20)      0
      9      8  H        7   0.364980(     8)      1   90.000(    15)      2  180.000(    21)      0
 ---------------------------------------------------------------------------------------------------
                         Z-Matrix orientation:                         
 ---------------------------------------------------------------------
 Center     Atomic      Atomic             Coordinates (Angstroms)
 Number     Number       Type             X           Y           Z
 ---------------------------------------------------------------------
      1          8           0        0.000000    0.000000    0.000000
      2          1           0        0.000000    0.000000    0.970000
      3          1           0        0.914525    0.000000   -0.323333
      4          8           0       -3.755879   -0.000000   -2.655818
      5          1           0       -4.670405   -0.000000   -2.332489
      6          1           0       -3.755879   -0.000000   -3.625818
      7         -1           0       -1.592165   -0.000000   -1.125836
      8          1           0       -1.802887   -0.000000   -0.827831
      9          1           0       -1.381443   -0.000000   -1.423840
 ---------------------------------------------------------------------
                    Distance matrix (angstroms):
                    1          2          3          4          5
     1  O    0.000000
     2  H    0.970000   0.000000
     3  H    0.970000   1.584003   0.000000
     4  O    4.600000   5.220459   5.220456   0.000000
     5  H    5.220459   5.720063   5.935330   0.970000   0.000000
     6  H    5.220459   5.935333   5.720060   0.970000   1.584001
     7  X    1.949999   2.632018   2.632015   2.650001   3.306293
     8  H    1.983862   2.546095   2.763846   2.675017   3.238310
     9  H    1.983862   2.763848   2.546092   2.675017   3.412171
                    6          7          8          9
     6  H    0.000000
     7  X    3.306293   0.000000
     8  H    3.412171   0.364980   0.000000
     9  H    3.238310   0.364980   0.729960   0.000000
 Stoichiometry    H6O2
 Framework group  CS[SG(H6O2)]
 Deg. of freedom    13
 Full point group                 CS      NOp   2
 Largest Abelian subgroup         CS      NOp   2
 Largest concise Abelian subgroup C1      NOp   1
                         Standard orientation:                         
 ---------------------------------------------------------------------
 Center     Atomic      Atomic             Coordinates (Angstroms)
 Number     Number       Type             X           Y           Z
 ---------------------------------------------------------------------
      1          8           0        0.000000   -2.268182    0.000000
      2          1           0        0.792001   -2.828213    0.000000
      3          1           0       -0.792003   -2.828210    0.000000
      4          8           0        0.000000    2.331818   -0.000000
      5          1           0        0.792001    2.891849   -0.000000
      6          1           0       -0.792001    2.891849   -0.000000
      7          1           0        0.364980   -0.318183    0.000000
      8          1           0       -0.364980   -0.318183    0.000000
 ---------------------------------------------------------------------
 Rotational constants (GHZ):         180.6730268           2.4964982           2.4624723
 Standard basis: 6-31G (6D, 7F)
 There are    26 symmetry adapted cartesian basis functions of A'  symmetry.
 There are     4 symmetry adapted cartesian basis functions of A"  symmetry.
 There are    26 symmetry adapted basis functions of A'  symmetry.
 There are     4 symmetry adapted basis functions of A"  symmetry.
    30 basis functions,    68 primitive gaussians,    30 cartesian basis functions
    11 alpha electrons       11 beta electrons
       nuclear repulsion energy        38.6886104192 Hartrees.
 NAtoms=    8 NActive=    8 NUniq=    8 SFac= 1.00D+00 NAtFMM=   60 NAOKFM=F Big=F
 Integral buffers will be    131072 words long.
 Raffenetti 1 integral format.
 Two-electron integral symmetry is turned on.
 One-electron integrals computed using PRISM.
 NBasis=    30 RedAO= T EigKep=  7.07D-02  NBF=    26     4
 NBsUse=    30 1.00D-06 EigRej= -1.00D+00 NBFU=    26     4
 Initial guess from the checkpoint file:  "2H2_H2_dummy_input_5.chk"
 B after Tr=    -0.000000    0.000000   -0.000000
         Rot=    1.000000    0.000000    0.000000    0.000000 Ang=   0.00 deg.
 Initial guess orbital symmetries:
       Occupied  (A') (A') (A') (A') (A') (A') (A') (A') (A") (A")
                 (A')
       Virtual   (A') (A') (A') (A') (A') (A') (A') (A') (A') (A')
                 (A") (A") (A') (A') (A') (A') (A') (A') (A')
 ExpMin= 1.61D-01 ExpMax= 5.48D+03 ExpMxC= 8.25D+02 IAcc=2 IRadAn=         4 AccDes= 0.00D+00
 Harris functional with IExCor=  205 and IRadAn=       4 diagonalized for initial guess.
 HarFok:  IExCor=  205 AccDes= 0.00D+00 IRadAn=         4 IDoV= 1 UseB2=F ITyADJ=14
 ICtDFT=  3500011 ScaDFX=  1.000000  1.000000  1.000000  1.000000
 FoFCou: FMM=F IPFlag=           0 FMFlag=      100000 FMFlg1=           0
         NFxFlg=           0 DoJE=T BraDBF=F KetDBF=T FulRan=T
         wScrn=  0.000000 ICntrl=       500 IOpCl=  0 I1Cent=   200000004 NGrid=           0
         NMat0=    1 NMatS0=      1 NMatT0=    0 NMatD0=    1 NMtDS0=    0 NMtDT0=    0
 Petite list used in FoFCou.
 Keep R1 ints in memory in symmetry-blocked form, NReq=2532635.
 Requested convergence on RMS density matrix=1.00D-08 within 128 cycles.
 Requested convergence on MAX density matrix=1.00D-06.
 Requested convergence on             energy=1.00D-06.
 No special actions if energy rises.
 SCF Done:  E(RHF) =  -153.065257342     A.U. after    8 cycles
            NFock=  8  Conv=0.57D-08     -V/T= 1.9994
 Variable Step   Value    
 -------- ---- -----------
     6      10    3.611474
    13       0    2.186278
 ---------------------------------------------------------------------------------------------------
                            Z-MATRIX (ANGSTROMS AND DEGREES)
   CD    Cent   Atom    N1       Length/X        N2       Alpha/Y        N3        Beta/Z          J
 ---------------------------------------------------------------------------------------------------
      1      1  O 
      2      2  H        1   0.970000(     1)
      3      3  H        1   0.970000(     2)      2  109.471(     9)
      4      4  O        1   4.600000(     3)      2  125.265(    10)      3  180.000(    16)      0
      5      5  H        4   0.970000(     4)      1  125.265(    11)      2    0.000(    17)      0
      6      6  H        4   0.970000(     5)      1  125.265(    12)      2  180.000(    18)      0
      7         X        1   1.911110(     6)      2  125.265(    13)      3  180.000(    19)      0
[...]
  104     1.9889    75.2645   -153.07534
  105     1.9500    75.2645   -153.07268
  106     1.9111    75.2645   -153.06964
  107     1.8722    75.2645   -153.06619
  108     1.8333    75.2645   -153.06227
  109     1.7944    75.2645   -153.05783
  110     1.7556    75.2645   -153.05279
  111     1.7167    75.2645   -153.04708
  112     1.6778    75.2645   -153.04063
  113     1.6389    75.2645   -153.03334
  114     1.6000    75.2645   -153.02511
  115     2.3000    65.2645   -153.08694
  116     2.2611    65.2645   -153.08595
  117     2.2222    65.2645   -153.08481
  118     2.1833    65.2645   -153.08351
  119     2.1444    65.2645   -153.08201
  120     2.1056    65.2645   -153.08030
  121     2.0667    65.2645   -153.07835
  122     2.0278    65.2645   -153.07612
  123     1.9889    65.2645   -153.07358
  124     1.9500    65.2645   -153.07069
  125     1.9111    65.2645   -153.06739
  126     1.8722    65.2645   -153.06365
  127     1.8333    65.2645   -153.05940
  128     1.7944    65.2645   -153.05458
  129     1.7556    65.2645   -153.04911
  130     1.7167    65.2645   -153.04293
  131     1.6778    65.2645   -153.03594
  132     1.6389    65.2645   -153.02804
  133     1.6000    65.2645   -153.01913
  134     2.3000    55.2645   -153.08558
  135     2.2611    55.2645   -153.08440
  136     2.2222    55.2645   -153.08305
  137     2.1833    55.2645   -153.08151
  138     2.1444    55.2645   -153.07975
  139     2.1056    55.2645   -153.07774
  140     2.0667    55.2645   -153.07545
  141     2.0278    55.2645   -153.07284
  142     1.9889    55.2645   -153.06987
  143     1.9500    55.2645   -153.06649
  144     1.9111    55.2645   -153.06265
  145     1.8722    55.2645   -153.05830
  146     1.8333    55.2645   -153.05337
  147     1.7944    55.2645   -153.04778
  148     1.7556    55.2645   -153.04146
  149     1.7167    55.2645   -153.03431
  150     1.6778    55.2645   -153.02624
  151     1.6389    55.2645   -153.01714
  152     1.6000    55.2645   -153.00687
  153     2.3000    45.2645   -153.08336
  154     2.2611    45.2645   -153.08187
  155     2.2222    45.2645   -153.08018
  156     2.1833    45.2645   -153.07824
  157     2.1444    45.2645   -153.07604
  158     2.1056    45.2645   -153.07353
  159     2.0667    45.2645   -153.07069
  160     2.0278    45.2645   -153.06745
  161     1.9889    45.2645   -153.06378
  162     1.9500    45.2645   -153.05961
  163     1.9111    45.2645   -153.05489
  164     1.8722    45.2645   -153.04954
  165     1.8333    45.2645   -153.04349
  166     1.7944    45.2645   -153.03664
  167     1.7556    45.2645   -153.02889
  168     1.7167    45.2645   -153.02013
  169     1.6778    45.2645   -153.01024
  170     1.6389    45.2645   -152.99908
  171     1.6000    45.2645   -152.98647
  172     2.3000    35.2645   -153.08024
  173     2.2611    35.2645   -153.07834
  174     2.2222    35.2645   -153.07616
  175     2.1833    35.2645   -153.07369
  176     2.1444    35.2645   -153.07089
  177     2.1056    35.2645   -153.06771
  178     2.0667    35.2645   -153.06410
  179     2.0278    35.2645   -153.06000
  180     1.9889    35.2645   -153.05536
  181     1.9500    35.2645   -153.05009
  182     1.9111    35.2645   -153.04413
  183     1.8722    35.2645   -153.03737
  184     1.8333    35.2645   -153.02971
  185     1.7944    35.2645   -153.02102
  186     1.7556    35.2645   -153.01118
  187     1.7167    35.2645   -153.00001
  188     1.6778    35.2645   -152.98734
  189     1.6389    35.2645   -152.97293
  190     1.6000    35.2645   -152.95655
  191     2.3000    25.2645   -153.07659
  192     2.2611    25.2645   -153.07420
  193     2.2222    25.2645   -153.07149
  194     2.1833    25.2645   -153.06841
  195     2.1444    25.2645   -153.06493
  196     2.1056    25.2645   -153.06097
  197     2.0667    25.2645   -153.05649
  198     2.0278    25.2645   -153.05140
  199     1.9889    25.2645   -153.04563
  200     1.9500    25.2645   -153.03909
  201     1.9111    25.2645   -153.03166
  202     1.8722    25.2645   -153.02322
  203     1.8333    25.2645   -153.01362
  204     1.7944    25.2645   -153.00269
  205     1.7556    25.2645   -152.99022
  206     1.7167    25.2645   -152.97597
  207     1.6778    25.2645   -152.95964
  208     1.6389    25.2645   -152.94088
  209     1.6000    25.2645   -152.91924
  210     2.3000    15.2645   -153.07311
  211     2.2611    15.2645   -153.07028
  212     2.2222    15.2645   -153.06708
  213     2.1833    15.2645   -153.06345
  214     2.1444    15.2645   -153.05935
  215     2.1056    15.2645   -153.05470
  216     2.0667    15.2645   -153.04943
  217     2.0278    15.2645   -153.04345
  218     1.9889    15.2645   -153.03667
  219     1.9500    15.2645   -153.02898
  220     1.9111    15.2645   -153.02023
  221     1.8722    15.2645   -153.01028
  222     1.8333    15.2645   -152.99894
  223     1.7944    15.2645   -152.98600
  224     1.7556    15.2645   -152.97119
  225     1.7167    15.2645   -152.95419
  226     1.6778    15.2645   -152.93464
  227     1.6389    15.2645   -152.91206
  228     1.6000    15.2645   -152.88588
  229     2.3000     5.2645   -153.07050
  230     2.2611     5.2645   -153.06736
  231     2.2222     5.2645   -153.06381
  232     2.1833     5.2645   -153.05981
  233     2.1444     5.2645   -153.05528
  234     2.1056     5.2645   -153.05016
  235     2.0667     5.2645   -153.04436
  236     2.0278     5.2645   -153.03781
  237     1.9889     5.2645   -153.03038
  238     1.9500     5.2645   -153.02195
  239     1.9111     5.2645   -153.01240
  240     1.8722     5.2645   -153.00155
  241     1.8333     5.2645   -152.98921
  242     1.7944     5.2645   -152.97517
  243     1.7556     5.2645   -152.95916
  244     1.7167     5.2645   -152.94089
  245     1.6778     5.2645   -152.91999
  246     1.6389     5.2645   -152.89604
  247     1.6000     5.2645   -152.86857
  248     2.3000    -4.7355   -153.06921
  249     2.2611    -4.7355   -153.06593
  250     2.2222    -4.7355   -153.06223
  251     2.1833    -4.7355   -153.05805
  252     2.1444    -4.7355   -153.05334
  253     2.1056    -4.7355   -153.04802
  254     2.0667    -4.7355   -153.04201
  255     2.0278    -4.7355   -153.03522
  256     1.9889    -4.7355   -153.02754
  257     1.9500    -4.7355   -153.01884
  258     1.9111    -4.7355   -153.00899
  259     1.8722    -4.7355   -152.99782
  260     1.8333    -4.7355   -152.98514
  261     1.7944    -4.7355   -152.97073
  262     1.7556    -4.7355   -152.95433
  263     1.7167    -4.7355   -152.93563
  264     1.6778    -4.7355   -152.91428
  265     1.6389    -4.7355   -152.88986
  266     1.6000    -4.7355   -152.86189
  267     2.3000   -14.7355   -153.06950
  268     2.2611   -14.7355   -153.06628
  269     2.2222   -14.7355   -153.06264
  270     2.1833   -14.7355   -153.05853
  271     2.1444   -14.7355   -153.05391
  272     2.1056   -14.7355   -153.04870
  273     2.0667   -14.7355   -153.04282
  274     2.0278   -14.7355   -153.03618
  275     1.9889   -14.7355   -153.02869
  276     1.9500   -14.7355   -153.02021
  277     1.9111   -14.7355   -153.01063
  278     1.8722   -14.7355   -152.99976
  279     1.8333   -14.7355   -152.98743
  280     1.7944   -14.7355   -152.97342
  281     1.7556   -14.7355   -152.95745
  282     1.7167   -14.7355   -152.93920
  283     1.6778   -14.7355   -152.91829
  284     1.6389   -14.7355   -152.89424
  285     1.6000   -14.7355   -152.86648
  286     2.3000   -24.7355   -153.07129
  287     2.2611   -24.7355   -153.06830
  288     2.2222   -24.7355   -153.06494
  289     2.1833   -24.7355   -153.06115
  290     2.1444   -24.7355   -153.05689
  291     2.1056   -24.7355   -153.05209
  292     2.0667   -24.7355   -153.04668
  293     2.0278   -24.7355   -153.04060
  294     1.9889   -24.7355   -153.03375
  295     1.9500   -24.7355   -153.02603
  296     1.9111   -24.7355   -153.01732
  297     1.8722   -24.7355   -153.00749
  298     1.8333   -24.7355   -152.99639
  299     1.7944   -24.7355   -152.98382
  300     1.7556   -24.7355   -152.96957
  301     1.7167   -24.7355   -152.95339
  302     1.6778   -24.7355   -152.93495
  303     1.6389   -24.7355   -152.91390
  304     1.6000   -24.7355   -152.88975
  305     2.3000   -34.7355   -153.07381
  306     2.2611   -34.7355   -153.07116
  307     2.2222   -34.7355   -153.06818
  308     2.1833   -34.7355   -153.06482
  309     2.1444   -34.7355   -153.06105
  310     2.1056   -34.7355   -153.05681
  311     2.0667   -34.7355   -153.05204
  312     2.0278   -34.7355   -153.04668
  313     1.9889   -34.7355   -153.04066
  314     1.9500   -34.7355   -153.03391
  315     1.9111   -34.7355   -153.02632
  316     1.8722   -34.7355   -153.01779
  317     1.8333   -34.7355   -153.00822
  318     1.7944   -34.7355   -152.99745
  319     1.7556   -34.7355   -152.98535
  320     1.7167   -34.7355   -152.97173
  321     1.6778   -34.7355   -152.95640
  322     1.6389   -34.7355   -152.93910
  323     1.6000   -34.7355   -152.91958
  324     2.3000   -44.7355   -153.07594
  325     2.2611   -44.7355   -153.07358
  326     2.2222   -44.7355   -153.07091
  327     2.1833   -44.7355   -153.06791
  328     2.1444   -44.7355   -153.06454
  329     2.1056   -44.7355   -153.06074
  330     2.0667   -44.7355   -153.05649
  331     2.0278   -44.7355   -153.05171
  332     1.9889   -44.7355   -153.04635
  333     1.9500   -44.7355   -153.04034
  334     1.9111   -44.7355   -153.03361
  335     1.8722   -44.7355   -153.02607
  336     1.8333   -44.7355   -153.01763
  337     1.7944   -44.7355   -153.00819
  338     1.7556   -44.7355   -152.99762
  339     1.7167   -44.7355   -152.98581
  340     1.6778   -44.7355   -152.97259
  341     1.6389   -44.7355   -152.95782
  342     1.6000   -44.7355   -152.94130
  343     2.3000   -54.7355   -153.07676
  344     2.2611   -54.7355   -153.07451
  345     2.2222   -54.7355   -153.07196
  346     2.1833   -54.7355   -153.06910
  347     2.1444   -54.7355   -153.06587
  348     2.1056   -54.7355   -153.06225
  349     2.0667   -54.7355   -153.05819
  350     2.0278   -54.7355   -153.05363
  351     1.9889   -54.7355   -153.04851
  352     1.9500   -54.7355   -153.04278
  353     1.9111   -54.7355   -153.03636
  354     1.8722   -54.7355   -153.02918
  355     1.8333   -54.7355   -153.02114
  356     1.7944   -54.7355   -153.01217
  357     1.7556   -54.7355   -153.00214
  358     1.7167   -54.7355   -152.99094
  359     1.6778   -54.7355   -152.97845
  360     1.6389   -54.7355   -152.96451
  361     1.6000   -54.7355   -152.94898
 ----  ---------  ---------  -----------
  
 1\1\GINC-NSCC-N3\Scan\RHF\6-31G\H6O2\JKIM22\04-Nov-2019\1\\# scan hf/6
 -31g\\2H2O_H2_dummy_input_5\\0,1\O\H,1,B1\H,1,B2,2,A1\O,1,B3,2,A2,3,D1
 ,0\H,4,B4,1,A3,2,D2,0\H,4,B5,1,A4,2,D3,0\X,1,B6,2,A5,3,D4,0\H,7,B7,1,A
 6,2,D5,0\H,7,B8,1,A7,2,D6,0\\B1=0.97\B2=0.97\B3=4.6\B4=0.97\B5=0.97\B6
 =2.3,s,18,-0.038889\B7=0.36498\B8=0.36498\A1=109.47122063\A2=125.2645\
 A3=125.2645\A4=125.2645\A5=125.2645,s,18,-10.\A6=90.\A7=90.\D1=180.\D2
 =0.\D3=180.\D4=180.\D5=0.\D6=180.\\Version=ES64L-G16RevA.03\HF=-153.07
 63734,-153.0762494,-153.0758757,-153.0752463,-153.0743515,-153.0731773
 ,-153.0717056,-153.0699139,-153.0677751,-153.0652573,-153.0623234,-153
 .0589304,-153.05503,-153.0505669,-153.0454793,-153.0396981,-153.033146
 3,-153.0257387,-153.0173821,-153.0790783,-153.0786711,-153.078055,-153
 .0772189,-153.0761483,-153.0748257,-153.0732296,-153.0713348,-153.0691
 118,-153.0665268,-153.063541,-153.0601104,-153.0561852,-153.0517095,-1
 53.0466209,-153.0408495,-153.0343181,-153.0269414,-153.0186257,-153.08
 38481,-153.0830404,-153.0820782,-153.0809448,-153.079621,-153.0780849,
 -153.0763114,-153.0742722,-153.0719351,-153.0692641,-153.0662185,-153.
 0627529,-153.0588164,-153.0543522,-153.0492972,-153.0435811,-153.03712
 64,-153.0298475,-153.0216507,-153.0867976,-153.0858604,-153.0847887,-1
 53.0835647,-153.0821683,-153.0805767,-153.0787644,-153.0767023,-153.07
 43582,-153.0716957,-153.0686738,-153.0652472,-153.0613648,-153.05697,-
 153.0519996,-153.0463837,-153.0400446,-153.0328969,-153.0248464,-153.0
 877766,-153.0868538,-153.0858,-153.0845974,-153.0832257,-153.0816622,-
 153.0798812,-153.0778536,-153.075547,-153.0729247,-153.0699459,-153.06
 65646,-153.0627297,-153.0583841,-153.0534641,-153.047899,-153.0416106,
 -153.034512,-153.0265077,-153.0876759,-153.0867567,-153.0857033,-153.0
 844973,-153.0831178,-153.081541,-153.0797405,-153.0776861,-153.0753441
 ,-153.0726768,-153.0696417,-153.0661912,-153.0622725,-153.0578264,-153
 .0527869,-153.0470809,-153.0406269,-153.0333351,-153.0251061,-153.0869
 445,-153.0859516,-153.0848125,-153.083507,-153.0820125,-153.0803033,-1
 53.0783506,-153.0761218,-153.0735807,-153.0706863,-153.0673928,-153.06
 36492,-153.0593984,-153.0545766,-153.0491129,-153.0429285,-153.0359359
 ,-153.028038,-153.0191277,-153.0855756,-153.0843986,-153.083051,-153.0
 815096,-153.0797485,-153.0777385,-153.0754467,-153.0728362,-153.069865
 7,-153.0664888,-153.0626535,-153.0583017,-153.0533687,-153.0477818,-15
 3.0414604,-153.0343144,-153.0262437,-153.0171371,-153.0068714,-153.083
 3572,-153.0818711,-153.0801753,-153.078242,-153.0760402,-153.0735349,-
 153.0706866,-153.0674511,-153.0637784,-153.0596126,-153.0548908,-153.0
 495421,-153.0434872,-153.0366367,-153.0288902,-153.0201349,-153.010244
 1,-152.999075,-152.9864676,-153.080245,-153.0783353,-153.0761631,-153.
 0736943,-153.0708901,-153.0677069,-153.0640952,-153.0599991,-153.05535
 51,-153.0500915,-153.0441263,-153.0373667,-153.0297065,-153.0210242,-1
 53.0111801,-153.0000133,-152.9873372,-152.9729342,-152.9565496,-153.07
 65934,-153.0742032,-153.0714911,-153.0684149,-153.0649266,-153.0609715
 ,-153.0564872,-153.0514022,-153.0456348,-153.0390907,-153.0316613,-153
 .0232204,-153.0136208,-153.0026892,-152.9902206,-152.9759701,-152.9596
 425,-152.9408789,-152.9192387,-153.0731082,-153.0702802,-153.0670781,-
 153.0634524,-153.0593466,-153.0546959,-153.0494261,-153.0434516,-153.0
 366741,-153.0289792,-153.0202342,-153.0102835,-152.9989439,-152.985998
 2,-152.9711863,-152.9541948,-152.934643,-152.9120645,-152.8858827,-153
 .0704952,-153.0673583,-153.0638137,-153.0598077,-153.0552792,-153.0501
 581,-153.0443642,-153.0378054,-153.030376,-153.0219542,-153.0123995,-1
 53.0015488,-152.9892129,-152.9751705,-152.9591629,-152.9408866,-152.91
 99852,-152.896041,-152.8685653,-153.0692065,-153.0659273,-153.0622275,
 -153.0580529,-153.0533411,-153.0480211,-153.0420116,-153.0352194,-153.
 0275374,-153.0188426,-153.0089928,-152.9978238,-152.9851446,-152.97073
 28,-152.9543287,-152.9356284,-152.9142763,-152.8898568,-152.8618865,-1
 53.0695038,-153.0662752,-153.0626361,-153.0585345,-153.0539112,-153.04
 86982,-153.0428181,-153.0361817,-153.0286865,-153.020214,-153.0106264,
 -152.999763,-152.9874346,-152.9734177,-152.9574456,-152.9391981,-152.9
 182876,-152.8942415,-152.8664786,-153.0712902,-153.068303,-153.0649385
 ,-153.0611505,-153.0568865,-153.052087,-153.0466842,-153.0406011,-153.
 0337495,-153.0260283,-153.017321,-153.0074929,-152.9963869,-152.983819
 1,-152.9695723,-152.9533876,-152.9349544,-152.9138963,-152.8897525,-15
 3.0738137,-153.0711641,-153.0681808,-153.064824,-153.061049,-153.05680
 55,-153.0520372,-153.0466806,-153.0406643,-153.0339074,-153.0263187,-1
 53.0177948,-153.0082182,-152.9974549,-152.9853519,-152.9717331,-152.95
 63954,-152.9391034,-152.9195821,-153.0759427,-153.0735759,-153.07091,-
 153.0679098,-153.0645359,-153.0607446,-153.0564871,-153.0517092,-153.0
 463503,-153.040343,-153.0336121,-153.0260738,-153.0176347,-153.0081904
 ,-152.9976243,-152.9858065,-152.9725914,-152.9578167,-152.9413007,-153
 .0767637,-153.0745054,-153.0719608,-153.0690964,-153.0658745,-153.0622
 537,-153.0581878,-153.0536254,-153.0485098,-153.0427777,-153.0363593,-
 153.029177,-153.0211448,-153.0121672,-153.0021387,-152.9909419,-152.97
 84473,-152.9645115,-152.9489762\RMSD=2.001e-09,6.476e-09,6.617e-09,6.8
 57e-09,7.267e-09,7.933e-09,8.896e-09,4.243e-09,4.977e-09,5.732e-09,6.5
 24e-09,7.364e-09,8.264e-09,9.229e-09,1.431e-09,1.638e-09,1.873e-09,2.1
 37e-09,2.438e-09,8.464e-09,9.868e-09,9.423e-09,8.977e-09,8.903e-09,9.2
 69e-09,4.290e-09,4.903e-09,5.547e-09,6.243e-09,7.006e-09,7.850e-09,8.7
 89e-09,9.836e-09,1.558e-09,1.814e-09,2.125e-09,2.508e-09,2.988e-09,5.6
 90e-09,9.375e-09,9.675e-09,4.315e-09,4.586e-09,4.893e-09,5.253e-09,5.6
 89e-09,6.221e-09,6.866e-09,7.638e-09,8.551e-09,9.627e-09,1.371e-09,1.6
 18e-09,1.926e-09,2.310e-09,2.792e-09,3.399e-09,3.805e-09,4.220e-09,4.3
 54e-09,4.519e-09,4.727e-09,4.991e-09,5.328e-09,5.755e-09,6.291e-09,6.9
 57e-09,7.773e-09,8.765e-09,9.963e-09,1.208e-09,1.444e-09,1.746e-09,2.1
 30e-09,2.611e-09,3.210e-09,5.426e-09,9.826e-09,4.542e-09,4.710e-09,4.9
 10e-09,5.162e-09,5.488e-09,5.915e-09,6.464e-09,7.158e-09,8.019e-09,9.0
 69e-09,1.083e-09,1.241e-09,1.460e-09,1.755e-09,2.141e-09,2.639e-09,3.2
 69e-09,7.458e-09,4.794e-09,5.074e-09,5.384e-09,5.741e-09,6.166e-09,6.6
 82e-09,7.308e-09,8.065e-09,8.970e-09,1.501e-09,1.638e-09,1.801e-09,1.9
 96e-09,2.237e-09,2.540e-09,2.925e-09,3.412e-09,4.022e-09,9.729e-09,5.8
 21e-09,6.338e-09,6.927e-09,7.599e-09,8.364e-09,9.234e-09,1.634e-09,1.7
 74e-09,1.934e-09,2.117e-09,2.323e-09,2.558e-09,2.825e-09,3.132e-09,3.4
 89e-09,3.906e-09,4.392e-09,4.952e-09,2.114e-09,7.480e-09,8.249e-09,9.1
 00e-09,1.647e-09,1.763e-09,1.894e-09,2.043e-09,2.215e-09,2.411e-09,2.6
 34e-09,2.885e-09,3.167e-09,3.481e-09,3.832e-09,4.222e-09,4.652e-09,5.1
 23e-09,5.629e-09,2.851e-09,9.423e-09,1.844e-09,1.980e-09,2.126e-09,2.2
 82e-09,2.453e-09,2.640e-09,2.843e-09,3.062e-09,3.296e-09,3.543e-09,3.8
 06e-09,4.090e-09,4.401e-09,4.748e-09,5.133e-09,5.560e-09,6.032e-09,3.8
 59e-09,2.181e-09,2.354e-09,2.537e-09,2.728e-09,2.927e-09,3.136e-09,3.3
 56e-09,3.587e-09,3.836e-09,4.112e-09,4.428e-09,4.807e-09,5.266e-09,5.8
 20e-09,6.468e-09,7.209e-09,8.054e-09,9.049e-09,4.648e-09,2.713e-09,2.9
 15e-09,3.127e-09,3.351e-09,3.588e-09,3.847e-09,4.136e-09,4.470e-09,4.8
 65e-09,5.339e-09,5.900e-09,6.545e-09,7.253e-09,7.996e-09,8.767e-09,9.6
 38e-09,1.204e-09,1.383e-09,5.271e-09,8.965e-09,2.164e-09,2.397e-09,2.6
 53e-09,2.935e-09,3.250e-09,3.603e-09,3.997e-09,4.430e-09,4.884e-09,5.3
 24e-09,5.688e-09,5.896e-09,5.887e-09,5.746e-09,5.913e-09,7.241e-09,2.1
 31e-09,4.477e-09,1.807e-09,1.898e-09,2.040e-09,2.246e-09,2.528e-09,2.8
 93e-09,3.345e-09,3.880e-09,4.485e-09,5.133e-09,5.766e-09,6.294e-09,6.5
 78e-09,6.468e-09,6.007e-09,6.168e-09,9.545e-09,4.026e-09,4.857e-09,3.1
 60e-09,3.192e-09,3.212e-09,3.231e-09,3.271e-09,3.362e-09,3.543e-09,3.8
 62e-09,4.373e-09,5.128e-09,6.164e-09,7.488e-09,9.075e-09,1.958e-09,2.3
 48e-09,2.849e-09,3.508e-09,4.333e-09,8.694e-09,4.097e-09,4.331e-09,4.4
 90e-09,4.511e-09,4.303e-09,3.767e-09,2.890e-09,9.976e-09,2.458e-09,4.7
 84e-09,8.352e-09,1.502e-09,1.669e-09,1.907e-09,2.246e-09,2.726e-09,3.4
 11e-09,4.408e-09,8.355e-09,3.548e-09,3.962e-09,4.351e-09,4.610e-09,4.5
 61e-09,9.373e-09,8.145e-09,8.084e-09,2.633e-09,6.009e-09,1.262e-09,1.4
 84e-09,1.787e-09,2.195e-09,2.728e-09,3.410e-09,4.268e-09,5.335e-09,6.8
 43e-09,2.362e-09,2.657e-09,2.948e-09,3.162e-09,9.528e-09,8.522e-09,7.8
 35e-09,8.278e-09,2.968e-09,5.275e-09,8.260e-09,1.341e-09,1.603e-09,1.9
 28e-09,2.341e-09,2.862e-09,3.513e-09,4.313e-09,5.294e-09,7.289e-09,7.5
 35e-09,7.727e-09,7.880e-09,8.027e-09,8.239e-09,8.651e-09,9.489e-09,1.9
 58e-09,2.960e-09,4.480e-09,6.530e-09,9.107e-09,1.859e-09,2.175e-09,2.5
 30e-09,2.952e-09,3.486e-09,4.043e-09,8.144e-09,9.289e-09,4.632e-09,5.2
 34e-09,5.991e-09,6.883e-09,7.859e-09,8.871e-09,9.882e-09,1.130e-09,1.3
 50e-09,1.616e-09,1.926e-09,2.272e-09,2.639e-09,2.994e-09,3.293e-09,3.4
 90e-09\PG=CS [SG(H6O2)]\\@


 GOD DOES NOT PLAY WITH DICE.
               -- A. EINSTEIN
 Job cpu time:       0 days  0 hours 33 minutes  6.6 seconds.
 Elapsed time:       0 days  0 hours  3 minutes 37.4 seconds.
 File lengths (MBytes):  RWF=     10 Int=      0 D2E=      0 Chk=      5 Scr=      1
 Normal termination of Gaussian 16 at Mon Nov  4 22:10:14 2019.
