 Entering Gaussian System, Link 0=g16
 Input=2H2_H2_dummy_input_3_trial.com
 Output=2H2_H2_dummy_input_3_trial.log
 Initial command:
 /export/local/g16/l1.exe "/var/tmp/Gau-29272.inp" -scrdir="/var/tmp/"
 Entering Link 1 = /export/local/g16/l1.exe PID=     29273.
  
 Copyright (c) 1988,1990,1992,1993,1995,1998,2003,2009,2016,
            Gaussian, Inc.  All Rights Reserved.
  
 This is part of the Gaussian(R) 16 program.  It is based on
 the Gaussian(R) 09 system (copyright 2009, Gaussian, Inc.),
 the Gaussian(R) 03 system (copyright 2003, Gaussian, Inc.),
 the Gaussian(R) 98 system (copyright 1998, Gaussian, Inc.),
 the Gaussian(R) 94 system (copyright 1995, Gaussian, Inc.),
 the Gaussian 92(TM) system (copyright 1992, Gaussian, Inc.),
 the Gaussian 90(TM) system (copyright 1990, Gaussian, Inc.),
 the Gaussian 88(TM) system (copyright 1988, Gaussian, Inc.),
 the Gaussian 86(TM) system (copyright 1986, Carnegie Mellon
 University), and the Gaussian 82(TM) system (copyright 1983,
 Carnegie Mellon University). Gaussian is a federally registered
 trademark of Gaussian, Inc.
  
 This software contains proprietary and confidential information,
 including trade secrets, belonging to Gaussian, Inc.
  
 This software is provided under written license and may be
 used, copied, transmitted, or stored only in accord with that
 written license.
  
 The following legend is applicable only to US Government
 contracts under FAR:
  
                    RESTRICTED RIGHTS LEGEND
  
 Use, reproduction and disclosure by the US Government is
 subject to restrictions as set forth in subparagraphs (a)
 and (c) of the Commercial Computer Software - Restricted
 Rights clause in FAR 52.227-19.
  
 Gaussian, Inc.
 340 Quinnipiac St., Bldg. 40, Wallingford CT 06492
  
  
 ---------------------------------------------------------------
 Warning -- This program may not be used in any manner that
 competes with the business of Gaussian, Inc. or will provide
 assistance to any competitor of Gaussian, Inc.  The licensee
 of this program is prohibited from giving any competitor of
 Gaussian, Inc. access to this program.  By using this program,
 the user acknowledges that Gaussian, Inc. is engaged in the
 business of creating and licensing software in the field of
 computational chemistry and represents and warrants to the
 licensee that it is not a competitor of Gaussian, Inc. and that
 it will not use this program in any manner prohibited above.
 ---------------------------------------------------------------
  

 Cite this work as:
 Gaussian 16, Revision A.03,
 M. J. Frisch, G. W. Trucks, H. B. Schlegel, G. E. Scuseria, 
 M. A. Robb, J. R. Cheeseman, G. Scalmani, V. Barone, 
 G. A. Petersson, H. Nakatsuji, X. Li, M. Caricato, A. V. Marenich, 
 J. Bloino, B. G. Janesko, R. Gomperts, B. Mennucci, H. P. Hratchian, 
 J. V. Ortiz, A. F. Izmaylov, J. L. Sonnenberg, D. Williams-Young, 
 F. Ding, F. Lipparini, F. Egidi, J. Goings, B. Peng, A. Petrone, 
 T. Henderson, D. Ranasinghe, V. G. Zakrzewski, J. Gao, N. Rega, 
 G. Zheng, W. Liang, M. Hada, M. Ehara, K. Toyota, R. Fukuda, 
 J. Hasegawa, M. Ishida, T. Nakajima, Y. Honda, O. Kitao, H. Nakai, 
 T. Vreven, K. Throssell, J. A. Montgomery, Jr., J. E. Peralta, 
 F. Ogliaro, M. J. Bearpark, J. J. Heyd, E. N. Brothers, K. N. Kudin, 
 V. N. Staroverov, T. A. Keith, R. Kobayashi, J. Normand, 
 K. Raghavachari, A. P. Rendell, J. C. Burant, S. S. Iyengar, 
 J. Tomasi, M. Cossi, J. M. Millam, M. Klene, C. Adamo, R. Cammi, 
 J. W. Ochterski, R. L. Martin, K. Morokuma, O. Farkas, 
 J. B. Foresman, and D. J. Fox, Gaussian, Inc., Wallingford CT, 2016.
 
 ******************************************
 Gaussian 16:  ES64L-G16RevA.03 25-Dec-2016
                22-Jun-2020 
 ******************************************
 %chk=2H2_H2_dummy_input_3_trial.chk
 %nprocshared=12
 Will use up to   12 processors via shared memory.
 ---------------
 # scan hf/6-31g
 ---------------
 1/38=1,60=1,172=1/1,8;
 2/12=2,17=6,18=5,29=3,40=1/2;
 3/5=1,6=6,11=9,25=1,30=1/1,2,3;
 4//1;
 5/5=2,38=5/2;
 6/7=2,8=2,9=2,10=2,18=1,28=1/1;
 1/60=1/8(1);
 99/9=1/99;
 2/29=3/2;
 3/5=1,6=6,11=9,25=1,30=1/1,2,3;
 4/5=5,16=3,69=1/1;
 5/5=2,38=5/2;
 1/60=1/8(-4);
 99/9=1/99;
 --------------------------
 2H2_H2_dummy_input_3_trial
 --------------------------
 Symbolic Z-matrix:
 Charge =  0 Multiplicity = 1
 O
 H                    1    B1
 H                    1    B2       2    A1
 O                    1    B3       2    A2       3    D1       0
 H                    4    B4       1    A3       2    D2       0
 H                    4    B5       1    A4       2    D3       0
 X                    1    B6       2    A5       3    D4       0
 H                    7    B7       1    A6       2    D5       0
 H                    7    B8       4    A6       5    D6       0
       Variables:
  B1                    0.97                     
  B2                    0.97                     
  A1                  109.471                    
  B3                    4.6                      
  A2                  125.2645                   
  D1                  180.                       
  B4                    0.97                     
  A3                  125.2645                   
  D2                    0.                       
  B5                    0.97                     
  A4                  125.2645                   
  D3                  180.                       
  B6                    2.3    Scan 9    -0.03889
  A5                  125.2645                   
  D4                  180.                       
  B7                    0.36498                  
  A6                   90.     Scan 9   -10.     
  D5                    0.                       
  B8                    0.36498                  
  D6                  180.                       
 
     1 tetrahedral angles replaced.
    1 tetrahedral angles replaced.
 Scan the potential surface.
 Variable   Value     No. Steps Step-Size
 -------- ----------- --------- ---------
    13       2.300000       9     -0.0389
    17      90.000000       9    -10.0000
 A total of    100 points will be computed.
 ---------------------------------------------------------------------------------------------------
                            Z-MATRIX (ANGSTROMS AND DEGREES)
   CD    Cent   Atom    N1       Length/X        N2       Alpha/Y        N3        Beta/Z          J
 ---------------------------------------------------------------------------------------------------
      1      1  O 
      2      2  H        1   0.970000(     1)
      3      3  H        1   0.970000(     2)      2  109.471(     9)
      4      4  O        1   4.600000(     3)      2  125.265(    10)      3  180.000(    16)      0
      5      5  H        4   0.970000(     4)      1  125.265(    11)      2    0.000(    17)      0
      6      6  H        4   0.970000(     5)      1  125.265(    12)      2  180.000(    18)      0
      7         X        1   2.300000(     6)      2  125.265(    13)      3  180.000(    19)      0
      8      7  H        7   0.364980(     7)      1   90.000(    14)      2    0.000(    20)      0
      9      8  H        7   0.364980(     8)      4   90.000(    15)      5  180.000(    21)      0
 ---------------------------------------------------------------------------------------------------
                         Z-Matrix orientation:                         
 ---------------------------------------------------------------------
 Center     Atomic      Atomic             Coordinates (Angstroms)
 Number     Number       Type             X           Y           Z
 ---------------------------------------------------------------------
      1          8           0        0.000000    0.000000    0.000000
      2          1           0        0.000000    0.000000    0.970000
      3          1           0        0.914525    0.000000   -0.323333
      4          8           0       -3.755879   -0.000000   -2.655818
      5          1           0       -4.670405   -0.000000   -2.332489
      6          1           0       -3.755879   -0.000000   -3.625818
      7         -1           0       -1.877940   -0.000000   -1.327909
      8          1           0       -2.088661   -0.000000   -1.029905
      9          1           0       -1.667218   -0.000000   -1.625914
 ---------------------------------------------------------------------
                    Distance matrix (angstroms):
                    1          2          3          4          5
     1  O    0.000000
     2  H    0.970000   0.000000
     3  H    0.970000   1.584003   0.000000
     4  O    4.600000   5.220459   5.220456   0.000000
     5  H    5.220459   5.720063   5.935330   0.970000   0.000000
     6  H    5.220459   5.935333   5.720060   0.970000   1.584001
     7  X    2.300000   2.967666   2.967664   2.300000   2.967666
     8  H    2.328779   2.891734   3.085186   2.328779   2.891734
     9  H    2.328779   3.085188   2.891731   2.328779   3.085188
                    6          7          8          9
     6  H    0.000000
     7  X    2.967666   0.000000
     8  H    3.085188   0.364980   0.000000
     9  H    2.891734   0.364980   0.729960   0.000000
 Stoichiometry    H6O2
 Framework group  CS[SG(H6O2)]
 Deg. of freedom    13
 Full point group                 CS      NOp   2
 Largest Abelian subgroup         CS      NOp   2
 Largest concise Abelian subgroup C1      NOp   1
                         Standard orientation:                         
 ---------------------------------------------------------------------
 Center     Atomic      Atomic             Coordinates (Angstroms)
 Number     Number       Type             X           Y           Z
 ---------------------------------------------------------------------
      1          8           0        0.000000   -2.300000    0.000000
      2          1           0        0.792001   -2.860031    0.000000
      3          1           0       -0.792003   -2.860028    0.000000
      4          8           0        0.000000    2.300000   -0.000000
      5          1           0        0.792001    2.860031   -0.000000
      6          1           0       -0.792001    2.860031   -0.000000
      7          1           0        0.364980   -0.000000    0.000000
      8          1           0       -0.364980   -0.000000   -0.000000
 ---------------------------------------------------------------------
 Rotational constants (GHZ):         180.6730268           2.4993853           2.4652812
 Standard basis: 6-31G (6D, 7F)
 There are    26 symmetry adapted cartesian basis functions of A'  symmetry.
 There are     4 symmetry adapted cartesian basis functions of A"  symmetry.
 There are    26 symmetry adapted basis functions of A'  symmetry.
 There are     4 symmetry adapted basis functions of A"  symmetry.
    30 basis functions,    68 primitive gaussians,    30 cartesian basis functions
    11 alpha electrons       11 beta electrons
       nuclear repulsion energy        38.5095581663 Hartrees.
 NAtoms=    8 NActive=    8 NUniq=    8 SFac= 1.00D+00 NAtFMM=   60 NAOKFM=F Big=F
 Integral buffers will be    131072 words long.
 Raffenetti 1 integral format.
 Two-electron integral symmetry is turned on.
 One-electron integrals computed using PRISM.
 NBasis=    30 RedAO= T EigKep=  7.07D-02  NBF=    26     4
 NBsUse=    30 1.00D-06 EigRej= -1.00D+00 NBFU=    26     4
 ExpMin= 1.61D-01 ExpMax= 5.48D+03 ExpMxC= 8.25D+02 IAcc=3 IRadAn=         5 AccDes= 0.00D+00
 Harris functional with IExCor=  205 and IRadAn=       5 diagonalized for initial guess.
 HarFok:  IExCor=  205 AccDes= 0.00D+00 IRadAn=         5 IDoV= 1 UseB2=F ITyADJ=14
 ICtDFT=  3500011 ScaDFX=  1.000000  1.000000  1.000000  1.000000
 FoFCou: FMM=F IPFlag=           0 FMFlag=      100000 FMFlg1=           0
         NFxFlg=           0 DoJE=T BraDBF=F KetDBF=T FulRan=T
         wScrn=  0.000000 ICntrl=       500 IOpCl=  0 I1Cent=   200000004 NGrid=           0
         NMat0=    1 NMatS0=      1 NMatT0=    0 NMatD0=    1 NMtDS0=    0 NMtDT0=    0
 Petite list used in FoFCou.
 Initial guess orbital symmetries:
       Occupied  (A') (A') (A') (A') (A') (A') (A') (A') (A') (A")
                 (A")
       Virtual   (A') (A') (A') (A') (A') (A') (A') (A") (A") (A')
                 (A') (A') (A') (A') (A') (A') (A') (A') (A')
 The electronic state of the initial guess is 1-A'.
 Keep R1 ints in memory in symmetry-blocked form, NReq=2532491.
 Requested convergence on RMS density matrix=1.00D-08 within 128 cycles.
 Requested convergence on MAX density matrix=1.00D-06.
 Requested convergence on             energy=1.00D-06.
 No special actions if energy rises.
 SCF Done:  E(RHF) =  -153.076373366     A.U. after   10 cycles
            NFock= 10  Conv=0.20D-08     -V/T= 1.9998

 **********************************************************************

            Population analysis using the SCF density.

 **********************************************************************

 Orbital symmetries:
       Occupied  (A') (A') (A') (A') (A') (A') (A') (A') (A") (A")
                 (A')
       Virtual   (A') (A') (A') (A') (A') (A') (A') (A') (A') (A')
                 (A") (A") (A') (A') (A') (A') (A') (A') (A')
 The electronic state is 1-A'.
 Alpha  occ. eigenvalues --  -20.54429 -20.54429  -1.33213  -1.33204  -0.69864
 Alpha  occ. eigenvalues --   -0.69859  -0.57279  -0.53810  -0.48511  -0.48506
 Alpha  occ. eigenvalues --   -0.45996
 Alpha virt. eigenvalues --    0.21093   0.21698   0.30575   0.30724   0.31434
 Alpha virt. eigenvalues --    0.91002   1.09389   1.11737   1.15772   1.15910
 Alpha virt. eigenvalues --    1.17874   1.17909   1.21472   1.39311   1.39653
 Alpha virt. eigenvalues --    1.41010   1.57861   1.69165   1.70949
          Condensed to atoms (all electrons):
               1          2          3          4          5          6
     1  O    8.318602   0.253233   0.253233   0.000002  -0.000001  -0.000001
     2  H    0.253233   0.373990  -0.026503  -0.000001   0.000000   0.000000
     3  H    0.253233  -0.026503   0.373990  -0.000001   0.000000   0.000000
     4  O    0.000002  -0.000001  -0.000001   8.318601   0.253233   0.253233
     5  H   -0.000001   0.000000   0.000000   0.253233   0.373991  -0.026503
     6  H   -0.000001   0.000000   0.000000   0.253233  -0.026503   0.373991
     7  H   -0.015392   0.001171   0.000871  -0.015392   0.001171   0.000871
     8  H   -0.015392   0.000871   0.001171  -0.015392   0.000871   0.001171
               7          8
     1  O   -0.015392  -0.015392
     2  H    0.001171   0.000871
     3  H    0.000871   0.001171
     4  O   -0.015392  -0.015392
     5  H    0.001171   0.000871
     6  H    0.000871   0.001171
     7  H    0.608893   0.417998
     8  H    0.417998   0.608894
 Mulliken charges:
               1
     1  O   -0.794284
     2  H    0.397238
     3  H    0.397238
     4  O   -0.794284
     5  H    0.397238
     6  H    0.397238
     7  H   -0.000192
     8  H   -0.000192
 Sum of Mulliken charges =  -0.00000
 Mulliken charges with hydrogens summed into heavy atoms:
               1
     1  O    0.000192
     4  O   -0.000192
 Electronic spatial extent (au):  <R**2>=            441.5930
 Charge=             -0.0000 electrons
 Dipole moment (field-independent basis, Debye):
    X=             -0.0000    Y=              0.0000    Z=             -0.0000  Tot=              0.0000
 Quadrupole moment (field-independent basis, Debye-Ang):
   XX=             -9.6158   YY=              9.2014   ZZ=            -16.5124
   XY=              0.0000   XZ=              0.0000   YZ=             -0.0000
 Traceless Quadrupole moment (field-independent basis, Debye-Ang):
   XX=             -3.9735   YY=             14.8437   ZZ=            -10.8701
   XY=              0.0000   XZ=              0.0000   YZ=             -0.0000
 Octapole moment (field-independent basis, Debye-Ang**2):
  XXX=             -0.0000  YYY=              0.0001  ZZZ=             -0.0000  XYY=             -0.0000
  XXY=             -0.0000  XXZ=              0.0000  XZZ=             -0.0000  YZZ=              0.0000
  YYZ=             -0.0000  XYZ=             -0.0000
 Hexadecapole moment (field-independent basis, Debye-Ang**3):
 XXXX=            -14.1581 YYYY=           -148.8771 ZZZZ=            -12.3389 XXXY=              0.0000
 XXXZ=             -0.0000 YYYX=             -0.0000 YYYZ=             -0.0000 ZZZX=             -0.0000
 ZZZY=              0.0000 XXYY=            -37.9296 XXZZ=             -4.9952 YYZZ=            -84.9672
 XXYZ=              0.0000 YYXZ=              0.0000 ZZXY=             -0.0000
 N-N= 3.850955816633D+01 E-N=-4.408987167253D+02  KE= 1.531088518370D+02
 Symmetry A'   KE= 1.439946831027D+02
 Symmetry A"   KE= 9.114168734323D+00
 Variable Step   Value    
 -------- ---- -----------
    13       1    4.272879
    17       0    1.570796
 ---------------------------------------------------------------------------------------------------
                            Z-MATRIX (ANGSTROMS AND DEGREES)
   CD    Cent   Atom    N1       Length/X        N2       Alpha/Y        N3        Beta/Z          J
 ---------------------------------------------------------------------------------------------------
      1      1  O 
      2      2  H        1   0.970000(     1)
      3      3  H        1   0.970000(     2)      2  109.471(     9)
      4      4  O        1   4.600000(     3)      2  125.265(    10)      3  180.000(    16)      0
      5      5  H        4   0.970000(     4)      1  125.265(    11)      2    0.000(    17)      0
      6      6  H        4   0.970000(     5)      1  125.265(    12)      2  180.000(    18)      0
      7         X        1   2.261110(     6)      2  125.265(    13)      3  180.000(    19)      0
      8      7  H        7   0.364980(     7)      1   90.000(    14)      2    0.000(    20)      0
      9      8  H        7   0.364980(     8)      4   90.000(    15)      5  180.000(    21)      0
 ---------------------------------------------------------------------------------------------------
                         Z-Matrix orientation:                         
 ---------------------------------------------------------------------
 Center     Atomic      Atomic             Coordinates (Angstroms)
 Number     Number       Type             X           Y           Z
 ---------------------------------------------------------------------
      1          8           0        0.000000    0.000000    0.000000
      2          1           0        0.000000    0.000000    0.970000
      3          1           0        0.914525    0.000000   -0.323333
      4          8           0       -3.755879   -0.000000   -2.655818
      5          1           0       -4.670405   -0.000000   -2.332489
      6          1           0       -3.755879   -0.000000   -3.625818
      7         -1           0       -1.846186   -0.000000   -1.305456
      8          1           0       -2.056908   -0.000000   -1.007452
      9          1           0       -1.635464   -0.000000   -1.603461
 ---------------------------------------------------------------------
                    Distance matrix (angstroms):
                    1          2          3          4          5
     1  O    0.000000
     2  H    0.970000   0.000000
     3  H    0.970000   1.584003   0.000000
     4  O    4.600000   5.220459   5.220456   0.000000
     5  H    5.220459   5.720063   5.935330   0.970000   0.000000
     6  H    5.220459   5.935333   5.720060   0.970000   1.584001
     7  X    2.261110   2.930205   2.930203   2.338890   3.005164
     8  H    2.290377   2.853276   3.049169   2.367196   2.930203
     9  H    2.290377   3.049171   2.853273   2.367196   3.121274
                    6          7          8          9
     6  H    0.000000
     7  X    3.005164   0.000000
     8  H    3.121274   0.364980   0.000000
     9  H    2.930203   0.364980   0.729960   0.000000
 Stoichiometry    H6O2
 Framework group  CS[SG(H6O2)]
 Deg. of freedom    13
 Full point group                 CS      NOp   2
 Largest Abelian subgroup         CS      NOp   2
 Largest concise Abelian subgroup C1      NOp   1
                         Standard orientation:                         
 ---------------------------------------------------------------------
 Center     Atomic      Atomic             Coordinates (Angstroms)
 Number     Number       Type             X           Y           Z
 ---------------------------------------------------------------------
      1          8           0        0.000000   -2.296465    0.000000
      2          1           0        0.792001   -2.856496    0.000000
      3          1           0       -0.792003   -2.856493    0.000000
      4          8           0        0.000000    2.303535   -0.000000
      5          1           0        0.792001    2.863567   -0.000000
      6          1           0       -0.792001    2.863567   -0.000000
      7          1           0        0.364980   -0.035355   -0.000000
      8          1           0       -0.364980   -0.035355    0.000000
 ---------------------------------------------------------------------
 Rotational constants (GHZ):         180.6730268           2.4993496           2.4652465
 Standard basis: 6-31G (6D, 7F)
 There are    26 symmetry adapted cartesian basis functions of A'  symmetry.
 There are     4 symmetry adapted cartesian basis functions of A"  symmetry.
 There are    26 symmetry adapted basis functions of A'  symmetry.
 There are     4 symmetry adapted basis functions of A"  symmetry.
    30 basis functions,    68 primitive gaussians,    30 cartesian basis functions
    11 alpha electrons       11 beta electrons
       nuclear repulsion energy        38.5117259432 Hartrees.
 NAtoms=    8 NActive=    8 NUniq=    8 SFac= 1.00D+00 NAtFMM=   60 NAOKFM=F Big=F
 Integral buffers will be    131072 words long.
 Raffenetti 1 integral format.
 Two-electron integral symmetry is turned on.
 One-electron integrals computed using PRISM.
 NBasis=    30 RedAO= T EigKep=  7.07D-02  NBF=    26     4
 NBsUse=    30 1.00D-06 EigRej= -1.00D+00 NBFU=    26     4
 Initial guess from the checkpoint file:  "2H2_H2_dummy_input_3_trial.chk"
 B after Tr=    -0.000000    0.000000    0.000000
         Rot=    1.000000    0.000000    0.000000    0.000000 Ang=   0.00 deg.
 Initial guess orbital symmetries:
       Occupied  (A') (A') (A') (A') (A') (A') (A') (A') (A") (A")
                 (A')
       Virtual   (A') (A') (A') (A') (A') (A') (A') (A') (A') (A')
                 (A") (A") (A') (A') (A') (A') (A') (A') (A')
 ExpMin= 1.61D-01 ExpMax= 5.48D+03 ExpMxC= 8.25D+02 IAcc=2 IRadAn=         4 AccDes= 0.00D+00
 Harris functional with IExCor=  205 and IRadAn=       4 diagonalized for initial guess.
 HarFok:  IExCor=  205 AccDes= 0.00D+00 IRadAn=         4 IDoV= 1 UseB2=F ITyADJ=14
 ICtDFT=  3500011 ScaDFX=  1.000000  1.000000  1.000000  1.000000
 FoFCou: FMM=F IPFlag=           0 FMFlag=      100000 FMFlg1=           0
         NFxFlg=           0 DoJE=T BraDBF=F KetDBF=T FulRan=T
         wScrn=  0.000000 ICntrl=       500 IOpCl=  0 I1Cent=   200000004 NGrid=           0
         NMat0=    1 NMatS0=      1 NMatT0=    0 NMatD0=    1 NMtDS0=    0 NMtDT0=    0
 Petite list used in FoFCou.
 Keep R1 ints in memory in symmetry-blocked form, NReq=2532539.
 Requested convergence on RMS density matrix=1.00D-08 within 128 cycles.
 Requested convergence on MAX density matrix=1.00D-06.
 Requested convergence on             energy=1.00D-06.
 No special actions if energy rises.
 SCF Done:  E(RHF) =  -153.076249434     A.U. after    7 cycles
            NFock=  7  Conv=0.65D-08     -V/T= 1.9998
 Variable Step   Value    
 -------- ---- -----------
    13       2    4.199387
    17       0    1.570796
 ---------------------------------------------------------------------------------------------------
                            Z-MATRIX (ANGSTROMS AND DEGREES)
   CD    Cent   Atom    N1       Length/X        N2       Alpha/Y        N3        Beta/Z          J
 ---------------------------------------------------------------------------------------------------
      1      1  O 
      2      2  H        1   0.970000(     1)
      3      3  H        1   0.970000(     2)      2  109.471(     9)
      4      4  O        1   4.600000(     3)      2  125.265(    10)      3  180.000(    16)      0
      5      5  H        4   0.970000(     4)      1  125.265(    11)      2    0.000(    17)      0
      6      6  H        4   0.970000(     5)      1  125.265(    12)      2  180.000(    18)      0
      7         X        1   2.222220(     6)      2  125.265(    13)      3  180.000(    19)      0
      8      7  H        7   0.364980(     7)      1   90.000(    14)      2    0.000(    20)      0
      9      8  H        7   0.364980(     8)      4   90.000(    15)      5  180.000(    21)      0
 ---------------------------------------------------------------------------------------------------
                         Z-Matrix orientation:                         
 ---------------------------------------------------------------------
 Center     Atomic      Atomic             Coordinates (Angstroms)
 Number     Number       Type             X           Y           Z
 ---------------------------------------------------------------------
      1          8           0        0.000000    0.000000    0.000000
      2          1           0        0.000000    0.000000    0.970000
      3          1           0        0.914525    0.000000   -0.323333
      4          8           0       -3.755879   -0.000000   -2.655818
      5          1           0       -4.670405   -0.000000   -2.332489
      6          1           0       -3.755879   -0.000000   -3.625818
      7         -1           0       -1.814433   -0.000000   -1.283003
      8          1           0       -2.025154   -0.000000   -0.984998
      9          1           0       -1.603711   -0.000000   -1.581007
 ---------------------------------------------------------------------
                    Distance matrix (angstroms):
                    1          2          3          4          5
     1  O    0.000000
     2  H    0.970000   0.000000
     3  H    0.970000   1.584003   0.000000
     4  O    4.600000   5.220459   5.220456   0.000000
     5  H    5.220459   5.720063   5.935330   0.970000   0.000000
     6  H    5.220459   5.935333   5.720060   0.970000   1.584001
     7  X    2.222220   2.892782   2.892780   2.377780   3.042696
     8  H    2.251993   2.814830   3.013223   2.405628   2.968684
     9  H    2.251993   3.013225   2.814827   2.405628   3.157426
                    6          7          8          9
     6  H    0.000000
     7  X    3.042696   0.000000
     8  H    3.157426   0.364980   0.000000
     9  H    2.968684   0.364980   0.729960   0.000000
 Stoichiometry    H6O2
 Framework group  CS[SG(H6O2)]
 Deg. of freedom    13
 Full point group                 CS      NOp   2
 Largest Abelian subgroup         CS      NOp   2
 Largest concise Abelian subgroup C1      NOp   1
                         Standard orientation:                         
 ---------------------------------------------------------------------
 Center     Atomic      Atomic             Coordinates (Angstroms)
 Number     Number       Type             X           Y           Z
 ---------------------------------------------------------------------
      1          8           0        0.000000   -2.292929   -0.000000
      2          1           0        0.792001   -2.852961   -0.000000
      3          1           0       -0.792003   -2.852957   -0.000000
      4          8           0        0.000000    2.307071    0.000000
      5          1           0        0.792001    2.867102    0.000000
      6          1           0       -0.792001    2.867102    0.000000
      7          1           0        0.364980   -0.070709   -0.000000
      8          1           0       -0.364980   -0.070709   -0.000000
 ---------------------------------------------------------------------
 Rotational constants (GHZ):         180.6730268           2.4992425           2.4651423
 Standard basis: 6-31G (6D, 7F)
 There are    26 symmetry adapted cartesian basis functions of A'  symmetry.
 There are     4 symmetry adapted cartesian basis functions of A"  symmetry.
 There are    26 symmetry adapted basis functions of A'  symmetry.
 There are     4 symmetry adapted basis functions of A"  symmetry.
    30 basis functions,    68 primitive gaussians,    30 cartesian basis functions
    11 alpha electrons       11 beta electrons
       nuclear repulsion energy        38.5182355764 Hartrees.
 NAtoms=    8 NActive=    8 NUniq=    8 SFac= 1.00D+00 NAtFMM=   60 NAOKFM=F Big=F
 Integral buffers will be    131072 words long.
 Raffenetti 1 integral format.
 Two-electron integral symmetry is turned on.
 One-electron integrals computed using PRISM.
 NBasis=    30 RedAO= T EigKep=  7.07D-02  NBF=    26     4
 NBsUse=    30 1.00D-06 EigRej= -1.00D+00 NBFU=    26     4
 Initial guess from the checkpoint file:  "2H2_H2_dummy_input_3_trial.chk"
 B after Tr=     0.000000    0.000000   -0.000000
         Rot=    1.000000   -0.000000    0.000000    0.000000 Ang=   0.00 deg.
 Initial guess orbital symmetries:
       Occupied  (A') (A') (A') (A') (A') (A') (A') (A') (A") (A")
                 (A')
       Virtual   (A') (A') (A') (A') (A') (A') (A') (A') (A') (A')
                 (A") (A") (A') (A') (A') (A') (A') (A') (A')
 ExpMin= 1.61D-01 ExpMax= 5.48D+03 ExpMxC= 8.25D+02 IAcc=2 IRadAn=         4 AccDes= 0.00D+00
 Harris functional with IExCor=  205 and IRadAn=       4 diagonalized for initial guess.
 HarFok:  IExCor=  205 AccDes= 0.00D+00 IRadAn=         4 IDoV= 1 UseB2=F ITyADJ=14
 ICtDFT=  3500011 ScaDFX=  1.000000  1.000000  1.000000  1.000000
 FoFCou: FMM=F IPFlag=           0 FMFlag=      100000 FMFlg1=           0
         NFxFlg=           0 DoJE=T BraDBF=F KetDBF=T FulRan=T
         wScrn=  0.000000 ICntrl=       500 IOpCl=  0 I1Cent=   200000004 NGrid=           0
         NMat0=    1 NMatS0=      1 NMatT0=    0 NMatD0=    1 NMtDS0=    0 NMtDT0=    0
 Petite list used in FoFCou.
 Keep R1 ints in memory in symmetry-blocked form, NReq=2532539.
 Requested convergence on RMS density matrix=1.00D-08 within 128 cycles.
 Requested convergence on MAX density matrix=1.00D-06.
 Requested convergence on             energy=1.00D-06.
 No special actions if energy rises.
 SCF Done:  E(RHF) =  -153.075875694     A.U. after    7 cycles
            NFock=  7  Conv=0.66D-08     -V/T= 1.9998
 Variable Step   Value    
 -------- ---- -----------
    13       3    4.125896
    17       0    1.570796
 ---------------------------------------------------------------------------------------------------
                            Z-MATRIX (ANGSTROMS AND DEGREES)
   CD    Cent   Atom    N1       Length/X        N2       Alpha/Y        N3        Beta/Z          J
 ---------------------------------------------------------------------------------------------------
      1      1  O 
      2      2  H        1   0.970000(     1)
      3      3  H        1   0.970000(     2)      2  109.471(     9)
      4      4  O        1   4.600000(     3)      2  125.265(    10)      3  180.000(    16)      0
      5      5  H        4   0.970000(     4)      1  125.265(    11)      2    0.000(    17)      0
      6      6  H        4   0.970000(     5)      1  125.265(    12)      2  180.000(    18)      0
      7         X        1   2.183330(     6)      2  125.265(    13)      3  180.000(    19)      0
      8      7  H        7   0.364980(     7)      1   90.000(    14)      2    0.000(    20)      0
      9      8  H        7   0.364980(     8)      4   90.000(    15)      5  180.000(    21)      0
 ---------------------------------------------------------------------------------------------------
                         Z-Matrix orientation:                         
 ---------------------------------------------------------------------
 Center     Atomic      Atomic             Coordinates (Angstroms)
 Number     Number       Type             X           Y           Z
 ---------------------------------------------------------------------
      1          8           0        0.000000    0.000000    0.000000
      2          1           0        0.000000    0.000000    0.970000
      3          1           0        0.914525    0.000000   -0.323333
      4          8           0       -3.755879   -0.000000   -2.655818
      5          1           0       -4.670405   -0.000000   -2.332489
      6          1           0       -3.755879   -0.000000   -3.625818
      7         -1           0       -1.782679   -0.000000   -1.260550
      8          1           0       -1.993401   -0.000000   -0.962545
      9          1           0       -1.571957   -0.000000   -1.558554
 ---------------------------------------------------------------------
                    Distance matrix (angstroms):
                    1          2          3          4          5
     1  O    0.000000
     2  H    0.970000   0.000000
     3  H    0.970000   1.584003   0.000000
     4  O    4.600000   5.220459   5.220456   0.000000
     5  H    5.220459   5.720063   5.935330   0.970000   0.000000
     6  H    5.220459   5.935333   5.720060   0.970000   1.584001
     7  X    2.183330   2.855398   2.855395   2.416670   3.080262
     8  H    2.213626   2.776397   2.977352   2.444075   3.007174
     9  H    2.213626   2.977354   2.776394   2.444075   3.193643
                    6          7          8          9
     6  H    0.000000
     7  X    3.080262   0.000000
     8  H    3.193643   0.364980   0.000000
     9  H    3.007174   0.364980   0.729960   0.000000
 Stoichiometry    H6O2
 Framework group  CS[SG(H6O2)]
 Deg. of freedom    13
 Full point group                 CS      NOp   2
 Largest Abelian subgroup         CS      NOp   2
 Largest concise Abelian subgroup C1      NOp   1
                         Standard orientation:                         
 ---------------------------------------------------------------------
 Center     Atomic      Atomic             Coordinates (Angstroms)
 Number     Number       Type             X           Y           Z
 ---------------------------------------------------------------------
      1          8           0        0.000000   -2.289394    0.000000
      2          1           0        0.792001   -2.849425    0.000000
      3          1           0       -0.792003   -2.849422    0.000000
      4          8           0        0.000000    2.310606   -0.000000
      5          1           0        0.792001    2.870638   -0.000000
      6          1           0       -0.792001    2.870638   -0.000000
      7          1           0        0.364980   -0.106064   -0.000000
      8          1           0       -0.364980   -0.106064    0.000000
 ---------------------------------------------------------------------
 Rotational constants (GHZ):         180.6730268           2.4990641           2.4649688
 Standard basis: 6-31G (6D, 7F)
 There are    26 symmetry adapted cartesian basis functions of A'  symmetry.
 There are     4 symmetry adapted cartesian basis functions of A"  symmetry.
 There are    26 symmetry adapted basis functions of A'  symmetry.
 There are     4 symmetry adapted basis functions of A"  symmetry.
    30 basis functions,    68 primitive gaussians,    30 cartesian basis functions
    11 alpha electrons       11 beta electrons
       nuclear repulsion energy        38.5291060538 Hartrees.
 NAtoms=    8 NActive=    8 NUniq=    8 SFac= 1.00D+00 NAtFMM=   60 NAOKFM=F Big=F
 Integral buffers will be    131072 words long.
 Raffenetti 1 integral format.
 Two-electron integral symmetry is turned on.
 One-electron integrals computed using PRISM.
 NBasis=    30 RedAO= T EigKep=  7.07D-02  NBF=    26     4
 NBsUse=    30 1.00D-06 EigRej= -1.00D+00 NBFU=    26     4
 Initial guess from the checkpoint file:  "2H2_H2_dummy_input_3_trial.chk"
 B after Tr=    -0.000000   -0.000000   -0.000000
         Rot=    1.000000   -0.000000    0.000000    0.000000 Ang=   0.00 deg.
 Initial guess orbital symmetries:
       Occupied  (A') (A') (A') (A') (A') (A') (A') (A') (A") (A")
                 (A')
       Virtual   (A') (A') (A') (A') (A') (A') (A') (A') (A') (A')
                 (A") (A") (A') (A') (A') (A') (A') (A') (A')
 ExpMin= 1.61D-01 ExpMax= 5.48D+03 ExpMxC= 8.25D+02 IAcc=2 IRadAn=         4 AccDes= 0.00D+00
 Harris functional with IExCor=  205 and IRadAn=       4 diagonalized for initial guess.
 HarFok:  IExCor=  205 AccDes= 0.00D+00 IRadAn=         4 IDoV= 1 UseB2=F ITyADJ=14
 ICtDFT=  3500011 ScaDFX=  1.000000  1.000000  1.000000  1.000000
 FoFCou: FMM=F IPFlag=           0 FMFlag=      100000 FMFlg1=           0
         NFxFlg=           0 DoJE=T BraDBF=F KetDBF=T FulRan=T
         wScrn=  0.000000 ICntrl=       500 IOpCl=  0 I1Cent=   200000004 NGrid=           0
         NMat0=    1 NMatS0=      1 NMatT0=    0 NMatD0=    1 NMtDS0=    0 NMtDT0=    0
 Petite list used in FoFCou.
 Keep R1 ints in memory in symmetry-blocked form, NReq=2532539.
 Requested convergence on RMS density matrix=1.00D-08 within 128 cycles.
 Requested convergence on MAX density matrix=1.00D-06.
 Requested convergence on             energy=1.00D-06.
 No special actions if energy rises.
 SCF Done:  E(RHF) =  -153.075246288     A.U. after    7 cycles
            NFock=  7  Conv=0.69D-08     -V/T= 1.9997
 Variable Step   Value    
 -------- ---- -----------
    13       4    4.052404
    17       0    1.570796
 ---------------------------------------------------------------------------------------------------
                            Z-MATRIX (ANGSTROMS AND DEGREES)
   CD    Cent   Atom    N1       Length/X        N2       Alpha/Y        N3        Beta/Z          J
 ---------------------------------------------------------------------------------------------------
      1      1  O 
      2      2  H        1   0.970000(     1)
      3      3  H        1   0.970000(     2)      2  109.471(     9)
      4      4  O        1   4.600000(     3)      2  125.265(    10)      3  180.000(    16)      0
      5      5  H        4   0.970000(     4)      1  125.265(    11)      2    0.000(    17)      0
      6      6  H        4   0.970000(     5)      1  125.265(    12)      2  180.000(    18)      0
      7         X        1   2.144440(     6)      2  125.265(    13)      3  180.000(    19)      0
      8      7  H        7   0.364980(     7)      1   90.000(    14)      2    0.000(    20)      0
      9      8  H        7   0.364980(     8)      4   90.000(    15)      5  180.000(    21)      0
 ---------------------------------------------------------------------------------------------------
                         Z-Matrix orientation:                         
 ---------------------------------------------------------------------
 Center     Atomic      Atomic             Coordinates (Angstroms)
 Number     Number       Type             X           Y           Z
 ---------------------------------------------------------------------
      1          8           0        0.000000    0.000000    0.000000
      2          1           0        0.000000    0.000000    0.970000
      3          1           0        0.914525    0.000000   -0.323333
      4          8           0       -3.755879   -0.000000   -2.655818
      5          1           0       -4.670405   -0.000000   -2.332489
      6          1           0       -3.755879   -0.000000   -3.625818
      7         -1           0       -1.750926   -0.000000   -1.238096
      8          1           0       -1.961647   -0.000000   -0.940092
      9          1           0       -1.540204   -0.000000   -1.536101
 ---------------------------------------------------------------------
                    Distance matrix (angstroms):
                    1          2          3          4          5
     1  O    0.000000
     2  H    0.970000   0.000000
     3  H    0.970000   1.584003   0.000000
     4  O    4.600000   5.220459   5.220456   0.000000
     5  H    5.220459   5.720063   5.935330   0.970000   0.000000
     6  H    5.220459   5.935333   5.720060   0.970000   1.584001
     7  X    2.144440   2.818054   2.818052   2.455560   3.117861
     8  H    2.175278   2.737976   2.941557   2.482536   3.045675
     9  H    2.175278   2.941559   2.737973   2.482536   3.229922
                    6          7          8          9
     6  H    0.000000
     7  X    3.117861   0.000000
     8  H    3.229922   0.364980   0.000000
     9  H    3.045675   0.364980   0.729960   0.000000
 Stoichiometry    H6O2
 Framework group  CS[SG(H6O2)]
 Deg. of freedom    13
 Full point group                 CS      NOp   2
 Largest Abelian subgroup         CS      NOp   2
 Largest concise Abelian subgroup C1      NOp   1
                         Standard orientation:                         
 ---------------------------------------------------------------------
 Center     Atomic      Atomic             Coordinates (Angstroms)
 Number     Number       Type             X           Y           Z
 ---------------------------------------------------------------------
      1          8           0        0.000000   -2.285858    0.000000
      2          1           0        0.792001   -2.845890    0.000000
      3          1           0       -0.792003   -2.845887    0.000000
      4          8           0        0.000000    2.314142   -0.000000
      5          1           0        0.792001    2.874173   -0.000000
      6          1           0       -0.792001    2.874173   -0.000000
      7          1           0        0.364980   -0.141418   -0.000000
      8          1           0       -0.364980   -0.141418    0.000000
 ---------------------------------------------------------------------
 Rotational constants (GHZ):         180.6730268           2.4988144           2.4647258
 Standard basis: 6-31G (6D, 7F)
 There are    26 symmetry adapted cartesian basis functions of A'  symmetry.
 There are     4 symmetry adapted cartesian basis functions of A"  symmetry.
 There are    26 symmetry adapted basis functions of A'  symmetry.
 There are     4 symmetry adapted basis functions of A"  symmetry.
    30 basis functions,    68 primitive gaussians,    30 cartesian basis functions
    11 alpha electrons       11 beta electrons
       nuclear repulsion energy        38.5443691699 Hartrees.
 NAtoms=    8 NActive=    8 NUniq=    8 SFac= 1.00D+00 NAtFMM=   60 NAOKFM=F Big=F
 Integral buffers will be    131072 words long.
 Raffenetti 1 integral format.
 Two-electron integral symmetry is turned on.
 One-electron integrals computed using PRISM.
 NBasis=    30 RedAO= T EigKep=  7.07D-02  NBF=    26     4
 NBsUse=    30 1.00D-06 EigRej= -1.00D+00 NBFU=    26     4
 Initial guess from the checkpoint file:  "2H2_H2_dummy_input_3_trial.chk"
 B after Tr=    -0.000000    0.000000    0.000000
         Rot=    1.000000    0.000000    0.000000    0.000000 Ang=   0.00 deg.
 Initial guess orbital symmetries:
       Occupied  (A') (A') (A') (A') (A') (A') (A') (A') (A") (A")
                 (A')
       Virtual   (A') (A') (A') (A') (A') (A') (A') (A') (A') (A')
                 (A") (A") (A') (A') (A') (A') (A') (A') (A')
 ExpMin= 1.61D-01 ExpMax= 5.48D+03 ExpMxC= 8.25D+02 IAcc=2 IRadAn=         4 AccDes= 0.00D+00
 Harris functional with IExCor=  205 and IRadAn=       4 diagonalized for initial guess.
 HarFok:  IExCor=  205 AccDes= 0.00D+00 IRadAn=         4 IDoV= 1 UseB2=F ITyADJ=14
 ICtDFT=  3500011 ScaDFX=  1.000000  1.000000  1.000000  1.000000
 FoFCou: FMM=F IPFlag=           0 FMFlag=      100000 FMFlg1=           0
         NFxFlg=           0 DoJE=T BraDBF=F KetDBF=T FulRan=T
         wScrn=  0.000000 ICntrl=       500 IOpCl=  0 I1Cent=   200000004 NGrid=           0
         NMat0=    1 NMatS0=      1 NMatT0=    0 NMatD0=    1 NMtDS0=    0 NMtDT0=    0
 Petite list used in FoFCou.
 Keep R1 ints in memory in symmetry-blocked form, NReq=2532539.
 Requested convergence on RMS density matrix=1.00D-08 within 128 cycles.
 Requested convergence on MAX density matrix=1.00D-06.
 Requested convergence on             energy=1.00D-06.
 No special actions if energy rises.
 SCF Done:  E(RHF) =  -153.074351386     A.U. after    7 cycles
            NFock=  7  Conv=0.73D-08     -V/T= 1.9997
 Variable Step   Value    
 -------- ---- -----------
    13       5    3.978913
    17       0    1.570796
 ---------------------------------------------------------------------------------------------------
                            Z-MATRIX (ANGSTROMS AND DEGREES)
   CD    Cent   Atom    N1       Length/X        N2       Alpha/Y        N3        Beta/Z          J
 ---------------------------------------------------------------------------------------------------
      1      1  O 
      2      2  H        1   0.970000(     1)
      3      3  H        1   0.970000(     2)      2  109.471(     9)
      4      4  O        1   4.600000(     3)      2  125.265(    10)      3  180.000(    16)      0
      5      5  H        4   0.970000(     4)      1  125.265(    11)      2    0.000(    17)      0
      6      6  H        4   0.970000(     5)      1  125.265(    12)      2  180.000(    18)      0
      7         X        1   2.105550(     6)      2  125.265(    13)      3  180.000(    19)      0
      8      7  H        7   0.364980(     7)      1   90.000(    14)      2    0.000(    20)      0
      9      8  H        7   0.364980(     8)      4   90.000(    15)      5  180.000(    21)      0
 ---------------------------------------------------------------------------------------------------
                         Z-Matrix orientation:                         
 ---------------------------------------------------------------------
 Center     Atomic      Atomic             Coordinates (Angstroms)
 Number     Number       Type             X           Y           Z
 ---------------------------------------------------------------------
      1          8           0        0.000000    0.000000    0.000000
      2          1           0        0.000000    0.000000    0.970000
      3          1           0        0.914525    0.000000   -0.323333
      4          8           0       -3.755879   -0.000000   -2.655818
      5          1           0       -4.670405   -0.000000   -2.332489
      6          1           0       -3.755879   -0.000000   -3.625818
      7         -1           0       -1.719172   -0.000000   -1.215643
      8          1           0       -1.929894   -0.000000   -0.917639
      9          1           0       -1.508450   -0.000000   -1.513648
 ---------------------------------------------------------------------
                    Distance matrix (angstroms):
                    1          2          3          4          5
     1  O    0.000000
     2  H    0.970000   0.000000
     3  H    0.970000   1.584003   0.000000
     4  O    4.600000   5.220459   5.220456   0.000000
     5  H    5.220459   5.720063   5.935330   0.970000   0.000000
     6  H    5.220459   5.935333   5.720060   0.970000   1.584001
     7  X    2.105550   2.780753   2.780751   2.494450   3.155491
     8  H    2.136949   2.699569   2.905842   2.521010   3.084186
     9  H    2.136949   2.905844   2.699566   2.521010   3.266261
                    6          7          8          9
     6  H    0.000000
     7  X    3.155491   0.000000
     8  H    3.266261   0.364980   0.000000
     9  H    3.084186   0.364980   0.729960   0.000000
 Stoichiometry    H6O2
 Framework group  CS[SG(H6O2)]
 Deg. of freedom    13
 Full point group                 CS      NOp   2
 Largest Abelian subgroup         CS      NOp   2
 Largest concise Abelian subgroup C1      NOp   1
                         Standard orientation:                         
 ---------------------------------------------------------------------
 Center     Atomic      Atomic             Coordinates (Angstroms)
 Number     Number       Type             X           Y           Z
 ---------------------------------------------------------------------
      1          8           0        0.000000   -2.282323    0.000000
      2          1           0        0.792001   -2.842354    0.000000
      3          1           0       -0.792003   -2.842351    0.000000
      4          8           0        0.000000    2.317677   -0.000000
      5          1           0        0.792001    2.877708   -0.000000
      6          1           0       -0.792001    2.877708   -0.000000
      7          1           0        0.364980   -0.176773    0.000000
      8          1           0       -0.364980   -0.176773    0.000000
 ---------------------------------------------------------------------
 Rotational constants (GHZ):         180.6730268           2.4984934           2.4644135
 Standard basis: 6-31G (6D, 7F)
 There are    26 symmetry adapted cartesian basis functions of A'  symmetry.
 There are     4 symmetry adapted cartesian basis functions of A"  symmetry.
 There are    26 symmetry adapted basis functions of A'  symmetry.
 There are     4 symmetry adapted basis functions of A"  symmetry.
    30 basis functions,    68 primitive gaussians,    30 cartesian basis functions
    11 alpha electrons       11 beta electrons
       nuclear repulsion energy        38.5640697496 Hartrees.
 NAtoms=    8 NActive=    8 NUniq=    8 SFac= 1.00D+00 NAtFMM=   60 NAOKFM=F Big=F
 Integral buffers will be    131072 words long.
 Raffenetti 1 integral format.
 Two-electron integral symmetry is turned on.
 One-electron integrals computed using PRISM.
 NBasis=    30 RedAO= T EigKep=  7.07D-02  NBF=    26     4
 NBsUse=    30 1.00D-06 EigRej= -1.00D+00 NBFU=    26     4
 Initial guess from the checkpoint file:  "2H2_H2_dummy_input_3_trial.chk"
 B after Tr=     0.000000    0.000000    0.000000
         Rot=    1.000000    0.000000    0.000000    0.000000 Ang=   0.00 deg.
 Initial guess orbital symmetries:
       Occupied  (A') (A') (A') (A') (A') (A') (A') (A') (A") (A")
                 (A')
       Virtual   (A') (A') (A') (A') (A') (A') (A') (A') (A') (A')
                 (A") (A") (A') (A') (A') (A') (A') (A') (A')
 ExpMin= 1.61D-01 ExpMax= 5.48D+03 ExpMxC= 8.25D+02 IAcc=2 IRadAn=         4 AccDes= 0.00D+00
 Harris functional with IExCor=  205 and IRadAn=       4 diagonalized for initial guess.
 HarFok:  IExCor=  205 AccDes= 0.00D+00 IRadAn=         4 IDoV= 1 UseB2=F ITyADJ=14
 ICtDFT=  3500011 ScaDFX=  1.000000  1.000000  1.000000  1.000000
 FoFCou: FMM=F IPFlag=           0 FMFlag=      100000 FMFlg1=           0
         NFxFlg=           0 DoJE=T BraDBF=F KetDBF=T FulRan=T
         wScrn=  0.000000 ICntrl=       500 IOpCl=  0 I1Cent=   200000004 NGrid=           0
         NMat0=    1 NMatS0=      1 NMatT0=    0 NMatD0=    1 NMtDS0=    0 NMtDT0=    0
 Petite list used in FoFCou.
 Keep R1 ints in memory in symmetry-blocked form, NReq=2532539.
 Requested convergence on RMS density matrix=1.00D-08 within 128 cycles.
 Requested convergence on MAX density matrix=1.00D-06.
 Requested convergence on             energy=1.00D-06.
 No special actions if energy rises.
 SCF Done:  E(RHF) =  -153.073177091     A.U. after    7 cycles
            NFock=  7  Conv=0.79D-08     -V/T= 1.9997
 Variable Step   Value    
 -------- ---- -----------
    13       6    3.905421
    17       0    1.570796
 ---------------------------------------------------------------------------------------------------
                            Z-MATRIX (ANGSTROMS AND DEGREES)
   CD    Cent   Atom    N1       Length/X        N2       Alpha/Y        N3        Beta/Z          J
 ---------------------------------------------------------------------------------------------------
      1      1  O 
      2      2  H        1   0.970000(     1)
      3      3  H        1   0.970000(     2)      2  109.471(     9)
      4      4  O        1   4.600000(     3)      2  125.265(    10)      3  180.000(    16)      0
      5      5  H        4   0.970000(     4)      1  125.265(    11)      2    0.000(    17)      0
      6      6  H        4   0.970000(     5)      1  125.265(    12)      2  180.000(    18)      0
      7         X        1   2.066660(     6)      2  125.265(    13)      3  180.000(    19)      0
      8      7  H        7   0.364980(     7)      1   90.000(    14)      2    0.000(    20)      0
      9      8  H        7   0.364980(     8)      4   90.000(    15)      5  180.000(    21)      0
 ---------------------------------------------------------------------------------------------------
                         Z-Matrix orientation:                         
 ---------------------------------------------------------------------
 Center     Atomic      Atomic             Coordinates (Angstroms)
 Number     Number       Type             X           Y           Z
 ---------------------------------------------------------------------
      1          8           0        0.000000    0.000000    0.000000
      2          1           0        0.000000    0.000000    0.970000
      3          1           0        0.914525    0.000000   -0.323333
      4          8           0       -3.755879   -0.000000   -2.655818
      5          1           0       -4.670405   -0.000000   -2.332489
      6          1           0       -3.755879   -0.000000   -3.625818
      7         -1           0       -1.687419   -0.000000   -1.193190
      8          1           0       -1.898140   -0.000000   -0.895185
      9          1           0       -1.476697   -0.000000   -1.491194
 ---------------------------------------------------------------------
                    Distance matrix (angstroms):
                    1          2          3          4          5
     1  O    0.000000
     2  H    0.970000   0.000000
     3  H    0.970000   1.584003   0.000000
     4  O    4.600000   5.220459   5.220456   0.000000
     5  H    5.220459   5.720063   5.935330   0.970000   0.000000
     6  H    5.220459   5.935333   5.720060   0.970000   1.584001
     7  X    2.066660   2.743496   2.743494   2.533340   3.193151
     8  H    2.098641   2.661175   2.870209   2.559496   3.122706
     9  H    2.098641   2.870211   2.661173   2.559496   3.302658
                    6          7          8          9
     6  H    0.000000
     7  X    3.193151   0.000000
     8  H    3.302658   0.364980   0.000000
     9  H    3.122706   0.364980   0.729960   0.000000
 Stoichiometry    H6O2
 Framework group  CS[SG(H6O2)]
 Deg. of freedom    13
 Full point group                 CS      NOp   2
 Largest Abelian subgroup         CS      NOp   2
 Largest concise Abelian subgroup C1      NOp   1
                         Standard orientation:                         
 ---------------------------------------------------------------------
 Center     Atomic      Atomic             Coordinates (Angstroms)
 Number     Number       Type             X           Y           Z
 ---------------------------------------------------------------------
      1          8           0        0.000000   -2.278787   -0.000000
      2          1           0        0.792001   -2.838819   -0.000000
      3          1           0       -0.792003   -2.838816   -0.000000
      4          8           0        0.000000    2.321213    0.000000
      5          1           0        0.792001    2.881244    0.000000
      6          1           0       -0.792001    2.881244    0.000000
      7          1           0        0.364980   -0.212127    0.000000
      8          1           0       -0.364980   -0.212127   -0.000000
 ---------------------------------------------------------------------
 Rotational constants (GHZ):         180.6730268           2.4981012           2.4640320
 Standard basis: 6-31G (6D, 7F)
 There are    26 symmetry adapted cartesian basis functions of A'  symmetry.
 There are     4 symmetry adapted cartesian basis functions of A"  symmetry.
 There are    26 symmetry adapted basis functions of A'  symmetry.
 There are     4 symmetry adapted basis functions of A"  symmetry.
    30 basis functions,    68 primitive gaussians,    30 cartesian basis functions
    11 alpha electrons       11 beta electrons
       nuclear repulsion energy        38.5882659658 Hartrees.
 NAtoms=    8 NActive=    8 NUniq=    8 SFac= 1.00D+00 NAtFMM=   60 NAOKFM=F Big=F
 Integral buffers will be    131072 words long.
 Raffenetti 1 integral format.
 Two-electron integral symmetry is turned on.
 One-electron integrals computed using PRISM.
 NBasis=    30 RedAO= T EigKep=  7.07D-02  NBF=    26     4
 NBsUse=    30 1.00D-06 EigRej= -1.00D+00 NBFU=    26     4
 Initial guess from the checkpoint file:  "2H2_H2_dummy_input_3_trial.chk"
 B after Tr=    -0.000000   -0.000000    0.000000
         Rot=    1.000000    0.000000    0.000000    0.000000 Ang=   0.00 deg.
 Initial guess orbital symmetries:
       Occupied  (A') (A') (A') (A') (A') (A') (A') (A') (A") (A")
                 (A')
       Virtual   (A') (A') (A') (A') (A') (A') (A') (A') (A') (A')
                 (A") (A") (A') (A') (A') (A') (A') (A') (A')
 ExpMin= 1.61D-01 ExpMax= 5.48D+03 ExpMxC= 8.25D+02 IAcc=2 IRadAn=         4 AccDes= 0.00D+00
 Harris functional with IExCor=  205 and IRadAn=       4 diagonalized for initial guess.
 HarFok:  IExCor=  205 AccDes= 0.00D+00 IRadAn=         4 IDoV= 1 UseB2=F ITyADJ=14
 ICtDFT=  3500011 ScaDFX=  1.000000  1.000000  1.000000  1.000000
 FoFCou: FMM=F IPFlag=           0 FMFlag=      100000 FMFlg1=           0
         NFxFlg=           0 DoJE=T BraDBF=F KetDBF=T FulRan=T
         wScrn=  0.000000 ICntrl=       500 IOpCl=  0 I1Cent=   200000004 NGrid=           0
         NMat0=    1 NMatS0=      1 NMatT0=    0 NMatD0=    1 NMtDS0=    0 NMtDT0=    0
 Petite list used in FoFCou.
 Keep R1 ints in memory in symmetry-blocked form, NReq=2532587.
 Requested convergence on RMS density matrix=1.00D-08 within 128 cycles.
 Requested convergence on MAX density matrix=1.00D-06.
 Requested convergence on             energy=1.00D-06.
 No special actions if energy rises.
 SCF Done:  E(RHF) =  -153.071705300     A.U. after    7 cycles
            NFock=  7  Conv=0.89D-08     -V/T= 1.9996
 Variable Step   Value    
 -------- ---- -----------
    13       7    3.831930
    17       0    1.570796
 ---------------------------------------------------------------------------------------------------
                            Z-MATRIX (ANGSTROMS AND DEGREES)
   CD    Cent   Atom    N1       Length/X        N2       Alpha/Y        N3        Beta/Z          J
 ---------------------------------------------------------------------------------------------------
      1      1  O 
      2      2  H        1   0.970000(     1)
      3      3  H        1   0.970000(     2)      2  109.471(     9)
      4      4  O        1   4.600000(     3)      2  125.265(    10)      3  180.000(    16)      0
      5      5  H        4   0.970000(     4)      1  125.265(    11)      2    0.000(    17)      0
      6      6  H        4   0.970000(     5)      1  125.265(    12)      2  180.000(    18)      0
      7         X        1   2.027770(     6)      2  125.265(    13)      3  180.000(    19)      0
      8      7  H        7   0.364980(     7)      1   90.000(    14)      2    0.000(    20)      0
      9      8  H        7   0.364980(     8)      4   90.000(    15)      5  180.000(    21)      0
 ---------------------------------------------------------------------------------------------------
                         Z-Matrix orientation:                         
 ---------------------------------------------------------------------
 Center     Atomic      Atomic             Coordinates (Angstroms)
 Number     Number       Type             X           Y           Z
 ---------------------------------------------------------------------
      1          8           0        0.000000    0.000000    0.000000
      2          1           0        0.000000    0.000000    0.970000
      3          1           0        0.914525    0.000000   -0.323333
      4          8           0       -3.755879   -0.000000   -2.655818
      5          1           0       -4.670405   -0.000000   -2.332489
      6          1           0       -3.755879   -0.000000   -3.625818
      7         -1           0       -1.655665   -0.000000   -1.170737
      8          1           0       -1.866387   -0.000000   -0.872732
      9          1           0       -1.444943   -0.000000   -1.468741
 ---------------------------------------------------------------------
                    Distance matrix (angstroms):
                    1          2          3          4          5
     1  O    0.000000
     2  H    0.970000   0.000000
     3  H    0.970000   1.584003   0.000000
     4  O    4.600000   5.220459   5.220456   0.000000
     5  H    5.220459   5.720063   5.935330   0.970000   0.000000
     6  H    5.220459   5.935333   5.720060   0.970000   1.584001
     7  X    2.027770   2.706285   2.706283   2.572230   3.230840
     8  H    2.060355   2.622797   2.834662   2.597995   3.161235
     9  H    2.060355   2.834664   2.622794   2.597995   3.339111
                    6          7          8          9
     6  H    0.000000
     7  X    3.230840   0.000000
     8  H    3.339111   0.364980   0.000000
     9  H    3.161235   0.364980   0.729960   0.000000
 Stoichiometry    H6O2
 Framework group  CS[SG(H6O2)]
 Deg. of freedom    13
 Full point group                 CS      NOp   2
 Largest Abelian subgroup         CS      NOp   2
 Largest concise Abelian subgroup C1      NOp   1
                         Standard orientation:                         
 ---------------------------------------------------------------------
 Center     Atomic      Atomic             Coordinates (Angstroms)
 Number     Number       Type             X           Y           Z
 ---------------------------------------------------------------------
      1          8           0        0.000000   -2.275252   -0.000000
      2          1           0        0.792001   -2.835283   -0.000000
      3          1           0       -0.792003   -2.835280   -0.000000
      4          8           0        0.000000    2.324748    0.000000
      5          1           0        0.792001    2.884779    0.000000
      6          1           0       -0.792001    2.884779    0.000000
      7          1           0        0.364980   -0.247482   -0.000000
      8          1           0       -0.364980   -0.247482    0.000000
 ---------------------------------------------------------------------
 Rotational constants (GHZ):         180.6730268           2.4976379           2.4635812
 Standard basis: 6-31G (6D, 7F)
 There are    26 symmetry adapted cartesian basis functions of A'  symmetry.
 There are     4 symmetry adapted cartesian basis functions of A"  symmetry.
 There are    26 symmetry adapted basis functions of A'  symmetry.
 There are     4 symmetry adapted basis functions of A"  symmetry.
    30 basis functions,    68 primitive gaussians,    30 cartesian basis functions
    11 alpha electrons       11 beta electrons
       nuclear repulsion energy        38.6170297538 Hartrees.
 NAtoms=    8 NActive=    8 NUniq=    8 SFac= 1.00D+00 NAtFMM=   60 NAOKFM=F Big=F
 Integral buffers will be    131072 words long.
 Raffenetti 1 integral format.
 Two-electron integral symmetry is turned on.
 One-electron integrals computed using PRISM.
 NBasis=    30 RedAO= T EigKep=  7.07D-02  NBF=    26     4
 NBsUse=    30 1.00D-06 EigRej= -1.00D+00 NBFU=    26     4
 Initial guess from the checkpoint file:  "2H2_H2_dummy_input_3_trial.chk"
 B after Tr=     0.000000    0.000000    0.000000
         Rot=    1.000000   -0.000000    0.000000    0.000000 Ang=   0.00 deg.
 Initial guess orbital symmetries:
       Occupied  (A') (A') (A') (A') (A') (A') (A') (A') (A") (A")
                 (A')
       Virtual   (A') (A') (A') (A') (A') (A') (A') (A') (A') (A')
                 (A") (A") (A') (A') (A') (A') (A') (A') (A')
 ExpMin= 1.61D-01 ExpMax= 5.48D+03 ExpMxC= 8.25D+02 IAcc=2 IRadAn=         4 AccDes= 0.00D+00
 Harris functional with IExCor=  205 and IRadAn=       4 diagonalized for initial guess.
 HarFok:  IExCor=  205 AccDes= 0.00D+00 IRadAn=         4 IDoV= 1 UseB2=F ITyADJ=14
 ICtDFT=  3500011 ScaDFX=  1.000000  1.000000  1.000000  1.000000
 FoFCou: FMM=F IPFlag=           0 FMFlag=      100000 FMFlg1=           0
         NFxFlg=           0 DoJE=T BraDBF=F KetDBF=T FulRan=T
         wScrn=  0.000000 ICntrl=       500 IOpCl=  0 I1Cent=   200000004 NGrid=           0
         NMat0=    1 NMatS0=      1 NMatT0=    0 NMatD0=    1 NMtDS0=    0 NMtDT0=    0
 Petite list used in FoFCou.
 Keep R1 ints in memory in symmetry-blocked form, NReq=2532635.
 Requested convergence on RMS density matrix=1.00D-08 within 128 cycles.
 Requested convergence on MAX density matrix=1.00D-06.
 Requested convergence on             energy=1.00D-06.
 No special actions if energy rises.
 SCF Done:  E(RHF) =  -153.069913520     A.U. after    8 cycles
            NFock=  8  Conv=0.42D-08     -V/T= 1.9996
 Variable Step   Value    
 -------- ---- -----------
    13       8    3.758438
    17       0    1.570796
 ---------------------------------------------------------------------------------------------------
                            Z-MATRIX (ANGSTROMS AND DEGREES)
   CD    Cent   Atom    N1       Length/X        N2       Alpha/Y        N3        Beta/Z          J
 ---------------------------------------------------------------------------------------------------
      1      1  O 
      2      2  H        1   0.970000(     1)
      3      3  H        1   0.970000(     2)      2  109.471(     9)
      4      4  O        1   4.600000(     3)      2  125.265(    10)      3  180.000(    16)      0
      5      5  H        4   0.970000(     4)      1  125.265(    11)      2    0.000(    17)      0
      6      6  H        4   0.970000(     5)      1  125.265(    12)      2  180.000(    18)      0
      7         X        1   1.988880(     6)      2  125.265(    13)      3  180.000(    19)      0
      8      7  H        7   0.364980(     7)      1   90.000(    14)      2    0.000(    20)      0
      9      8  H        7   0.364980(     8)      4   90.000(    15)      5  180.000(    21)      0
 ---------------------------------------------------------------------------------------------------
                         Z-Matrix orientation:                         
 ---------------------------------------------------------------------
 Center     Atomic      Atomic             Coordinates (Angstroms)
 Number     Number       Type             X           Y           Z
 ---------------------------------------------------------------------
      1          8           0        0.000000    0.000000    0.000000
      2          1           0        0.000000    0.000000    0.970000
      3          1           0        0.914525    0.000000   -0.323333
      4          8           0       -3.755879   -0.000000   -2.655818
      5          1           0       -4.670405   -0.000000   -2.332489
      6          1           0       -3.755879   -0.000000   -3.625818
      7         -1           0       -1.623912   -0.000000   -1.148284
      8          1           0       -1.834633   -0.000000   -0.850279
      9          1           0       -1.413190   -0.000000   -1.446288
 ---------------------------------------------------------------------
                    Distance matrix (angstroms):
                    1          2          3          4          5
     1  O    0.000000
     2  H    0.970000   0.000000
     3  H    0.970000   1.584003   0.000000
     4  O    4.600000   5.220459   5.220456   0.000000
     5  H    5.220459   5.720063   5.935330   0.970000   0.000000
     6  H    5.220459   5.935333   5.720060   0.970000   1.584001
     7  X    1.988880   2.669122   2.669120   2.611120   3.268557
     8  H    2.022092   2.584433   2.799204   2.636505   3.199773
     9  H    2.022092   2.799206   2.584431   2.636505   3.375619
                    6          7          8          9
     6  H    0.000000
     7  X    3.268557   0.000000
     8  H    3.375619   0.364980   0.000000
     9  H    3.199773   0.364980   0.729960   0.000000
 Stoichiometry    H6O2
 Framework group  CS[SG(H6O2)]
 Deg. of freedom    13
 Full point group                 CS      NOp   2
 Largest Abelian subgroup         CS      NOp   2
 Largest concise Abelian subgroup C1      NOp   1
                         Standard orientation:                         
 ---------------------------------------------------------------------
 Center     Atomic      Atomic             Coordinates (Angstroms)
 Number     Number       Type             X           Y           Z
 ---------------------------------------------------------------------
      1          8           0        0.000000   -2.271717    0.000000
      2          1           0        0.792001   -2.831748    0.000000
      3          1           0       -0.792003   -2.831745    0.000000
      4          8           0        0.000000    2.328283   -0.000000
      5          1           0        0.792001    2.888315   -0.000000
      6          1           0       -0.792001    2.888315   -0.000000
      7          1           0        0.364980   -0.282837    0.000000
      8          1           0       -0.364980   -0.282837    0.000000
 ---------------------------------------------------------------------
 Rotational constants (GHZ):         180.6730268           2.4971035           2.4630612
 Standard basis: 6-31G (6D, 7F)
 There are    26 symmetry adapted cartesian basis functions of A'  symmetry.
 There are     4 symmetry adapted cartesian basis functions of A"  symmetry.
 There are    26 symmetry adapted basis functions of A'  symmetry.
 There are     4 symmetry adapted basis functions of A"  symmetry.
    30 basis functions,    68 primitive gaussians,    30 cartesian basis functions
    11 alpha electrons       11 beta electrons
       nuclear repulsion energy        38.6504473288 Hartrees.
 NAtoms=    8 NActive=    8 NUniq=    8 SFac= 1.00D+00 NAtFMM=   60 NAOKFM=F Big=F
 Integral buffers will be    131072 words long.
 Raffenetti 1 integral format.
 Two-electron integral symmetry is turned on.
 One-electron integrals computed using PRISM.
 NBasis=    30 RedAO= T EigKep=  7.07D-02  NBF=    26     4
 NBsUse=    30 1.00D-06 EigRej= -1.00D+00 NBFU=    26     4
 Initial guess from the checkpoint file:  "2H2_H2_dummy_input_3_trial.chk"
 B after Tr=     0.000000    0.000000   -0.000000
         Rot=    1.000000   -0.000000    0.000000    0.000000 Ang=   0.00 deg.
 Initial guess orbital symmetries:
       Occupied  (A') (A') (A') (A') (A') (A') (A') (A') (A") (A")
                 (A')
       Virtual   (A') (A') (A') (A') (A') (A') (A') (A') (A') (A')
                 (A") (A") (A') (A') (A') (A') (A') (A') (A')
 ExpMin= 1.61D-01 ExpMax= 5.48D+03 ExpMxC= 8.25D+02 IAcc=2 IRadAn=         4 AccDes= 0.00D+00
 Harris functional with IExCor=  205 and IRadAn=       4 diagonalized for initial guess.
 HarFok:  IExCor=  205 AccDes= 0.00D+00 IRadAn=         4 IDoV= 1 UseB2=F ITyADJ=14
 ICtDFT=  3500011 ScaDFX=  1.000000  1.000000  1.000000  1.000000
 FoFCou: FMM=F IPFlag=           0 FMFlag=      100000 FMFlg1=           0
         NFxFlg=           0 DoJE=T BraDBF=F KetDBF=T FulRan=T
         wScrn=  0.000000 ICntrl=       500 IOpCl=  0 I1Cent=   200000004 NGrid=           0
         NMat0=    1 NMatS0=      1 NMatT0=    0 NMatD0=    1 NMtDS0=    0 NMtDT0=    0
 Petite list used in FoFCou.
 Keep R1 ints in memory in symmetry-blocked form, NReq=2532635.
 Requested convergence on RMS density matrix=1.00D-08 within 128 cycles.
 Requested convergence on MAX density matrix=1.00D-06.
 Requested convergence on             energy=1.00D-06.
 No special actions if energy rises.
 SCF Done:  E(RHF) =  -153.067774651     A.U. after    8 cycles
            NFock=  8  Conv=0.50D-08     -V/T= 1.9995
 Variable Step   Value    
 -------- ---- -----------
    13       9    3.684947
    17       0    1.570796
 ---------------------------------------------------------------------------------------------------
                            Z-MATRIX (ANGSTROMS AND DEGREES)
   CD    Cent   Atom    N1       Length/X        N2       Alpha/Y        N3        Beta/Z          J
 ---------------------------------------------------------------------------------------------------
      1      1  O 
      2      2  H        1   0.970000(     1)
      3      3  H        1   0.970000(     2)      2  109.471(     9)
      4      4  O        1   4.600000(     3)      2  125.265(    10)      3  180.000(    16)      0
      5      5  H        4   0.970000(     4)      1  125.265(    11)      2    0.000(    17)      0
      6      6  H        4   0.970000(     5)      1  125.265(    12)      2  180.000(    18)      0
      7         X        1   1.949990(     6)      2  125.265(    13)      3  180.000(    19)      0
      8      7  H        7   0.364980(     7)      1   90.000(    14)      2    0.000(    20)      0
      9      8  H        7   0.364980(     8)      4   90.000(    15)      5  180.000(    21)      0
 ---------------------------------------------------------------------------------------------------
                         Z-Matrix orientation:                         
 ---------------------------------------------------------------------
 Center     Atomic      Atomic             Coordinates (Angstroms)
 Number     Number       Type             X           Y           Z
 ---------------------------------------------------------------------
      1          8           0        0.000000    0.000000    0.000000
      2          1           0        0.000000    0.000000    0.970000
      3          1           0        0.914525    0.000000   -0.323333
      4          8           0       -3.755879   -0.000000   -2.655818
      5          1           0       -4.670405   -0.000000   -2.332489
      6          1           0       -3.755879   -0.000000   -3.625818
      7         -1           0       -1.592158   -0.000000   -1.125830
      8          1           0       -1.802880   -0.000000   -0.827826
      9          1           0       -1.381436   -0.000000   -1.423835
 ---------------------------------------------------------------------
                    Distance matrix (angstroms):
                    1          2          3          4          5
     1  O    0.000000
     2  H    0.970000   0.000000
     3  H    0.970000   1.584003   0.000000
     4  O    4.600000   5.220459   5.220456   0.000000
     5  H    5.220459   5.720063   5.935330   0.970000   0.000000
     6  H    5.220459   5.935333   5.720060   0.970000   1.584001
     7  X    1.949990   2.632009   2.632007   2.650010   3.306302
     8  H    1.983853   2.546086   2.763838   2.675026   3.238319
     9  H    1.983853   2.763840   2.546083   2.675026   3.412180
                    6          7          8          9
     6  H    0.000000
     7  X    3.306302   0.000000
     8  H    3.412180   0.364980   0.000000
     9  H    3.238319   0.364980   0.729960   0.000000
 Stoichiometry    H6O2
 Framework group  CS[SG(H6O2)]
 Deg. of freedom    13
 Full point group                 CS      NOp   2
 Largest Abelian subgroup         CS      NOp   2
 Largest concise Abelian subgroup C1      NOp   1
                         Standard orientation:                         
 ---------------------------------------------------------------------
 Center     Atomic      Atomic             Coordinates (Angstroms)
 Number     Number       Type             X           Y           Z
 ---------------------------------------------------------------------
      1          8           0        0.000000   -2.268181    0.000000
      2          1           0        0.792001   -2.828212    0.000000
      3          1           0       -0.792003   -2.828209   -0.000000
      4          8           0        0.000000    2.331819   -0.000000
      5          1           0        0.792001    2.891850    0.000000
      6          1           0       -0.792001    2.891850   -0.000000
      7          1           0        0.364980   -0.318191    0.000000
      8          1           0       -0.364980   -0.318191   -0.000000
 ---------------------------------------------------------------------
 Rotational constants (GHZ):         180.6730268           2.4964981           2.4624722
 Standard basis: 6-31G (6D, 7F)
 There are    26 symmetry adapted cartesian basis functions of A'  symmetry.
 There are     4 symmetry adapted cartesian basis functions of A"  symmetry.
 There are    26 symmetry adapted basis functions of A'  symmetry.
 There are     4 symmetry adapted basis functions of A"  symmetry.
    30 basis functions,    68 primitive gaussians,    30 cartesian basis functions
    11 alpha electrons       11 beta electrons
       nuclear repulsion energy        38.6886198119 Hartrees.
 NAtoms=    8 NActive=    8 NUniq=    8 SFac= 1.00D+00 NAtFMM=   60 NAOKFM=F Big=F
 Integral buffers will be    131072 words long.
 Raffenetti 1 integral format.
 Two-electron integral symmetry is turned on.
 One-electron integrals computed using PRISM.
 NBasis=    30 RedAO= T EigKep=  7.07D-02  NBF=    26     4
 NBsUse=    30 1.00D-06 EigRej= -1.00D+00 NBFU=    26     4
 Initial guess from the checkpoint file:  "2H2_H2_dummy_input_3_trial.chk"
 B after Tr=    -0.000000    0.000000    0.000000
         Rot=    1.000000    0.000000    0.000000    0.000000 Ang=   0.00 deg.
 Initial guess orbital symmetries:
       Occupied  (A') (A') (A') (A') (A') (A') (A') (A') (A") (A")
                 (A')
       Virtual   (A') (A') (A') (A') (A') (A') (A') (A') (A') (A')
                 (A") (A") (A') (A') (A') (A') (A') (A') (A')
 ExpMin= 1.61D-01 ExpMax= 5.48D+03 ExpMxC= 8.25D+02 IAcc=2 IRadAn=         4 AccDes= 0.00D+00
 Harris functional with IExCor=  205 and IRadAn=       4 diagonalized for initial guess.
 HarFok:  IExCor=  205 AccDes= 0.00D+00 IRadAn=         4 IDoV= 1 UseB2=F ITyADJ=14
 ICtDFT=  3500011 ScaDFX=  1.000000  1.000000  1.000000  1.000000
 FoFCou: FMM=F IPFlag=           0 FMFlag=      100000 FMFlg1=           0
         NFxFlg=           0 DoJE=T BraDBF=F KetDBF=T FulRan=T
         wScrn=  0.000000 ICntrl=       500 IOpCl=  0 I1Cent=   200000004 NGrid=           0
         NMat0=    1 NMatS0=      1 NMatT0=    0 NMatD0=    1 NMtDS0=    0 NMtDT0=    0
 Petite list used in FoFCou.
 Keep R1 ints in memory in symmetry-blocked form, NReq=2532635.
 Requested convergence on RMS density matrix=1.00D-08 within 128 cycles.
 Requested convergence on MAX density matrix=1.00D-06.
 Requested convergence on             energy=1.00D-06.
 No special actions if energy rises.
 SCF Done:  E(RHF) =  -153.065256713     A.U. after    8 cycles
            NFock=  8  Conv=0.57D-08     -V/T= 1.9994
 Variable Step   Value    
 -------- ---- -----------
    13       0    4.346370
    17       1    1.396263
 ---------------------------------------------------------------------------------------------------
                            Z-MATRIX (ANGSTROMS AND DEGREES)
   CD    Cent   Atom    N1       Length/X        N2       Alpha/Y        N3        Beta/Z          J
 ---------------------------------------------------------------------------------------------------
      1      1  O 
      2      2  H        1   0.970000(     1)
      3      3  H        1   0.970000(     2)      2  109.471(     9)
      4      4  O        1   4.600000(     3)      2  125.265(    10)      3  180.000(    16)      0
      5      5  H        4   0.970000(     4)      1  125.265(    11)      2    0.000(    17)      0
      6      6  H        4   0.970000(     5)      1  125.265(    12)      2  180.000(    18)      0
[...]
 Center     Atomic      Atomic             Coordinates (Angstroms)
 Number     Number       Type             X           Y           Z
 ---------------------------------------------------------------------
      1          8           0        0.000000    0.000000    0.000000
      2          1           0        0.000000    0.000000    0.970000
      3          1           0        0.914525    0.000000   -0.323333
      4          8           0       -3.755879   -0.000000   -2.655818
      5          1           0       -4.670405   -0.000000   -2.332489
      6          1           0       -3.755879   -0.000000   -3.625818
      7         -1           0       -1.623912   -0.000000   -1.148284
      8          1           0       -1.325907   -0.000000   -0.937562
      9          1           0       -1.921916   -0.000000   -1.359005
 ---------------------------------------------------------------------
                    Distance matrix (angstroms):
                    1          2          3          4          5
     1  O    0.000000
     2  H    0.970000   0.000000
     3  H    0.970000   1.584003   0.000000
     4  O    4.600000   5.220459   5.220456   0.000000
     5  H    5.220459   5.720063   5.935330   0.970000   0.000000
     6  H    5.220459   5.935333   5.720060   0.970000   1.584001
     7  X    1.988880   2.669122   2.669120   2.611120   3.268557
     8  H    1.623900   2.323106   2.323104   2.976100   3.623740
     9  H    2.353860   3.019607   3.019605   2.246140   2.915795
                    6          7          8          9
     6  H    0.000000
     7  X    3.268557   0.000000
     8  H    3.623740   0.364980   0.000000
     9  H    2.915795   0.364980   0.729960   0.000000
 Stoichiometry    H6O2
 Framework group  CS[SG(H6O2)]
 Deg. of freedom    13
 Full point group                 CS      NOp   2
 Largest Abelian subgroup         CS      NOp   2
 Largest concise Abelian subgroup C1      NOp   1
                         Standard orientation:                         
 ---------------------------------------------------------------------
 Center     Atomic      Atomic             Coordinates (Angstroms)
 Number     Number       Type             X           Y           Z
 ---------------------------------------------------------------------
      1          8           0        0.000000   -2.271717    0.000000
      2          1           0        0.792001   -2.831748    0.000000
      3          1           0       -0.792003   -2.831745    0.000000
      4          8           0        0.000000    2.328283   -0.000000
      5          1           0        0.792001    2.888315   -0.000000
      6          1           0       -0.792001    2.888315   -0.000000
      7          1           0        0.000000   -0.647817    0.000000
      8          1           0        0.000000    0.082143   -0.000000
 ---------------------------------------------------------------------
 Rotational constants (GHZ):         199.8574983           2.4937950           2.4630612
 Standard basis: 6-31G (6D, 7F)
 There are    26 symmetry adapted cartesian basis functions of A'  symmetry.
 There are     4 symmetry adapted cartesian basis functions of A"  symmetry.
 There are    26 symmetry adapted basis functions of A'  symmetry.
 There are     4 symmetry adapted basis functions of A"  symmetry.
    30 basis functions,    68 primitive gaussians,    30 cartesian basis functions
    11 alpha electrons       11 beta electrons
       nuclear repulsion energy        38.9937780943 Hartrees.
 NAtoms=    8 NActive=    8 NUniq=    8 SFac= 1.00D+00 NAtFMM=   60 NAOKFM=F Big=F
 Integral buffers will be    131072 words long.
 Raffenetti 1 integral format.
 Two-electron integral symmetry is turned on.
 One-electron integrals computed using PRISM.
 NBasis=    30 RedAO= T EigKep=  3.13D-02  NBF=    26     4
 NBsUse=    30 1.00D-06 EigRej= -1.00D+00 NBFU=    26     4
 Initial guess from the checkpoint file:  "2H2_H2_dummy_input_3_trial.chk"
 B after Tr=     0.000000    0.000000    0.000000
         Rot=    1.000000    0.000000    0.000000    0.000000 Ang=   0.00 deg.
 Initial guess orbital symmetries:
       Occupied  (A') (A') (A') (A') (A') (A') (A') (A') (A") (A")
                 (A')
       Virtual   (A') (A') (A') (A') (A') (A') (A') (A') (A') (A')
                 (A") (A") (A') (A') (A') (A') (A') (A') (A')
 ExpMin= 1.61D-01 ExpMax= 5.48D+03 ExpMxC= 8.25D+02 IAcc=2 IRadAn=         4 AccDes= 0.00D+00
 Harris functional with IExCor=  205 and IRadAn=       4 diagonalized for initial guess.
 HarFok:  IExCor=  205 AccDes= 0.00D+00 IRadAn=         4 IDoV= 1 UseB2=F ITyADJ=14
 ICtDFT=  3500011 ScaDFX=  1.000000  1.000000  1.000000  1.000000
 FoFCou: FMM=F IPFlag=           0 FMFlag=      100000 FMFlg1=           0
         NFxFlg=           0 DoJE=T BraDBF=F KetDBF=T FulRan=T
         wScrn=  0.000000 ICntrl=       500 IOpCl=  0 I1Cent=   200000004 NGrid=           0
         NMat0=    1 NMatS0=      1 NMatT0=    0 NMatD0=    1 NMtDS0=    0 NMtDT0=    0
 Petite list used in FoFCou.
 Keep R1 ints in memory in symmetry-blocked form, NReq=2532734.
 Requested convergence on RMS density matrix=1.00D-08 within 128 cycles.
 Requested convergence on MAX density matrix=1.00D-06.
 Requested convergence on             energy=1.00D-06.
 No special actions if energy rises.
 SCF Done:  E(RHF) =  -153.073639907     A.U. after    9 cycles
            NFock=  9  Conv=0.33D-08     -V/T= 1.9995
 Variable Step   Value    
 -------- ---- -----------
    13       9    3.684947
    17       9    0.000000
 ---------------------------------------------------------------------------------------------------
                            Z-MATRIX (ANGSTROMS AND DEGREES)
   CD    Cent   Atom    N1       Length/X        N2       Alpha/Y        N3        Beta/Z          J
 ---------------------------------------------------------------------------------------------------
      1      1  O 
      2      2  H        1   0.970000(     1)
      3      3  H        1   0.970000(     2)      2  109.471(     9)
      4      4  O        1   4.600000(     3)      2  125.265(    10)      3  180.000(    16)      0
      5      5  H        4   0.970000(     4)      1  125.265(    11)      2    0.000(    17)      0
      6      6  H        4   0.970000(     5)      1  125.265(    12)      2  180.000(    18)      0
      7         X        1   1.949990(     6)      2  125.265(    13)      3  180.000(    19)      0
      8      7  H        7   0.364980(     7)      1    0.000(    14)      2    0.000(    20)      0
      9      8  H        7   0.364980(     8)      4    0.000(    15)      5  180.000(    21)      0
 ---------------------------------------------------------------------------------------------------
                         Z-Matrix orientation:                         
 ---------------------------------------------------------------------
 Center     Atomic      Atomic             Coordinates (Angstroms)
 Number     Number       Type             X           Y           Z
 ---------------------------------------------------------------------
      1          8           0        0.000000    0.000000    0.000000
      2          1           0        0.000000    0.000000    0.970000
      3          1           0        0.914525    0.000000   -0.323333
      4          8           0       -3.755879   -0.000000   -2.655818
      5          1           0       -4.670405   -0.000000   -2.332489
      6          1           0       -3.755879   -0.000000   -3.625818
      7         -1           0       -1.592158   -0.000000   -1.125830
      8          1           0       -1.294153   -0.000000   -0.915108
      9          1           0       -1.890163   -0.000000   -1.336552
 ---------------------------------------------------------------------
                    Distance matrix (angstroms):
                    1          2          3          4          5
     1  O    0.000000
     2  H    0.970000   0.000000
     3  H    0.970000   1.584003   0.000000
     4  O    4.600000   5.220459   5.220456   0.000000
     5  H    5.220459   5.720063   5.935330   0.970000   0.000000
     6  H    5.220459   5.935333   5.720060   0.970000   1.584001
     7  X    1.949990   2.632009   2.632007   2.650010   3.306302
     8  H    1.585010   2.286584   2.286582   3.014990   3.661699
     9  H    2.314970   2.982096   2.982094   2.285030   2.953242
                    6          7          8          9
     6  H    0.000000
     7  X    3.306302   0.000000
     8  H    3.661699   0.364980   0.000000
     9  H    2.953242   0.364980   0.729960   0.000000
 Stoichiometry    H6O2
 Framework group  CS[SG(H6O2)]
 Deg. of freedom    13
 Full point group                 CS      NOp   2
 Largest Abelian subgroup         CS      NOp   2
 Largest concise Abelian subgroup C1      NOp   1
                         Standard orientation:                         
 ---------------------------------------------------------------------
 Center     Atomic      Atomic             Coordinates (Angstroms)
 Number     Number       Type             X           Y           Z
 ---------------------------------------------------------------------
      1          8           0        0.000000   -2.268181    0.000000
      2          1           0        0.792001   -2.828212    0.000000
      3          1           0       -0.792003   -2.828209    0.000000
      4          8           0        0.000000    2.331819   -0.000000
      5          1           0        0.792001    2.891850   -0.000000
      6          1           0       -0.792001    2.891850   -0.000000
      7          1           0        0.000000   -0.683171    0.000000
      8          1           0        0.000000    0.046789   -0.000000
 ---------------------------------------------------------------------
 Rotational constants (GHZ):         199.8574983           2.4931912           2.4624722
 Standard basis: 6-31G (6D, 7F)
 There are    26 symmetry adapted cartesian basis functions of A'  symmetry.
 There are     4 symmetry adapted cartesian basis functions of A"  symmetry.
 There are    26 symmetry adapted basis functions of A'  symmetry.
 There are     4 symmetry adapted basis functions of A"  symmetry.
    30 basis functions,    68 primitive gaussians,    30 cartesian basis functions
    11 alpha electrons       11 beta electrons
       nuclear repulsion energy        39.0415854567 Hartrees.
 NAtoms=    8 NActive=    8 NUniq=    8 SFac= 1.00D+00 NAtFMM=   60 NAOKFM=F Big=F
 Integral buffers will be    131072 words long.
 Raffenetti 1 integral format.
 Two-electron integral symmetry is turned on.
 One-electron integrals computed using PRISM.
 NBasis=    30 RedAO= T EigKep=  3.10D-02  NBF=    26     4
 NBsUse=    30 1.00D-06 EigRej= -1.00D+00 NBFU=    26     4
 Initial guess from the checkpoint file:  "2H2_H2_dummy_input_3_trial.chk"
 B after Tr=     0.000000    0.000000    0.000000
         Rot=    1.000000    0.000000    0.000000    0.000000 Ang=   0.00 deg.
 Initial guess orbital symmetries:
       Occupied  (A') (A') (A') (A') (A') (A') (A') (A') (A") (A")
                 (A')
       Virtual   (A') (A') (A') (A') (A') (A') (A') (A') (A') (A')
                 (A") (A") (A') (A') (A') (A') (A') (A') (A')
 ExpMin= 1.61D-01 ExpMax= 5.48D+03 ExpMxC= 8.25D+02 IAcc=2 IRadAn=         4 AccDes= 0.00D+00
 Harris functional with IExCor=  205 and IRadAn=       4 diagonalized for initial guess.
 HarFok:  IExCor=  205 AccDes= 0.00D+00 IRadAn=         4 IDoV= 1 UseB2=F ITyADJ=14
 ICtDFT=  3500011 ScaDFX=  1.000000  1.000000  1.000000  1.000000
 FoFCou: FMM=F IPFlag=           0 FMFlag=      100000 FMFlg1=           0
         NFxFlg=           0 DoJE=T BraDBF=F KetDBF=T FulRan=T
         wScrn=  0.000000 ICntrl=       500 IOpCl=  0 I1Cent=   200000004 NGrid=           0
         NMat0=    1 NMatS0=      1 NMatT0=    0 NMatD0=    1 NMtDS0=    0 NMtDT0=    0
 Petite list used in FoFCou.
 Keep R1 ints in memory in symmetry-blocked form, NReq=2532758.
 Requested convergence on RMS density matrix=1.00D-08 within 128 cycles.
 Requested convergence on MAX density matrix=1.00D-06.
 Requested convergence on             energy=1.00D-06.
 No special actions if energy rises.
 SCF Done:  E(RHF) =  -153.071182539     A.U. after    9 cycles
            NFock=  9  Conv=0.37D-08     -V/T= 1.9994
 Scan completed.
 
 Summary of the potential surface scan:
   N      B6         A6          SCF    
 ----  ---------  ---------  -----------
    1     2.3000    90.0000   -153.07637
    2     2.2611    90.0000   -153.07625
    3     2.2222    90.0000   -153.07588
    4     2.1833    90.0000   -153.07525
    5     2.1444    90.0000   -153.07435
    6     2.1056    90.0000   -153.07318
    7     2.0667    90.0000   -153.07171
    8     2.0278    90.0000   -153.06991
    9     1.9889    90.0000   -153.06777
   10     1.9500    90.0000   -153.06526
   11     2.3000    80.0000   -153.07651
   12     2.2611    80.0000   -153.07638
   13     2.2222    80.0000   -153.07601
   14     2.1833    80.0000   -153.07538
   15     2.1444    80.0000   -153.07448
   16     2.1056    80.0000   -153.07331
   17     2.0667    80.0000   -153.07184
   18     2.0278    80.0000   -153.07005
   19     1.9889    80.0000   -153.06791
   20     1.9500    80.0000   -153.06539
   21     2.3000    70.0000   -153.07690
   22     2.2611    70.0000   -153.07677
   23     2.2222    70.0000   -153.07640
   24     2.1833    70.0000   -153.07577
   25     2.1444    70.0000   -153.07488
   26     2.1056    70.0000   -153.07370
   27     2.0667    70.0000   -153.07224
   28     2.0278    70.0000   -153.07045
   29     1.9889    70.0000   -153.06831
   30     1.9500    70.0000   -153.06579
   31     2.3000    60.0000   -153.07752
   32     2.2611    60.0000   -153.07740
   33     2.2222    60.0000   -153.07703
   34     2.1833    60.0000   -153.07640
   35     2.1444    60.0000   -153.07551
   36     2.1056    60.0000   -153.07434
   37     2.0667    60.0000   -153.07288
   38     2.0278    60.0000   -153.07109
   39     1.9889    60.0000   -153.06896
   40     1.9500    60.0000   -153.06645
   41     2.3000    50.0000   -153.07835
   42     2.2611    50.0000   -153.07822
   43     2.2222    50.0000   -153.07785
   44     2.1833    50.0000   -153.07723
   45     2.1444    50.0000   -153.07635
   46     2.1056    50.0000   -153.07519
   47     2.0667    50.0000   -153.07373
   48     2.0278    50.0000   -153.07195
   49     1.9889    50.0000   -153.06983
   50     1.9500    50.0000   -153.06732
   51     2.3000    40.0000   -153.07929
   52     2.2611    40.0000   -153.07917
   53     2.2222    40.0000   -153.07880
   54     2.1833    40.0000   -153.07819
   55     2.1444    40.0000   -153.07731
   56     2.1056    40.0000   -153.07616
   57     2.0667    40.0000   -153.07471
   58     2.0278    40.0000   -153.07295
   59     1.9889    40.0000   -153.07083
   60     1.9500    40.0000   -153.06833
   61     2.3000    30.0000   -153.08025
   62     2.2611    30.0000   -153.08013
   63     2.2222    30.0000   -153.07977
   64     2.1833    30.0000   -153.07916
   65     2.1444    30.0000   -153.07829
   66     2.1056    30.0000   -153.07715
   67     2.0667    30.0000   -153.07572
   68     2.0278    30.0000   -153.07397
   69     1.9889    30.0000   -153.07187
   70     1.9500    30.0000   -153.06938
   71     2.3000    20.0000   -153.08108
   72     2.2611    20.0000   -153.08096
   73     2.2222    20.0000   -153.08060
   74     2.1833    20.0000   -153.08000
   75     2.1444    20.0000   -153.07915
   76     2.1056    20.0000   -153.07802
   77     2.0667    20.0000   -153.07660
   78     2.0278    20.0000   -153.07487
   79     1.9889    20.0000   -153.07278
   80     1.9500    20.0000   -153.07031
   81     2.3000    10.0000   -153.08165
   82     2.2611    10.0000   -153.08153
   83     2.2222    10.0000   -153.08118
   84     2.1833    10.0000   -153.08058
   85     2.1444    10.0000   -153.07974
   86     2.1056    10.0000   -153.07862
   87     2.0667    10.0000   -153.07721
   88     2.0278    10.0000   -153.07549
   89     1.9889    10.0000   -153.07341
   90     1.9500    10.0000   -153.07095
   91     2.3000     0.0000   -153.08185
   92     2.2611     0.0000   -153.08173
   93     2.2222     0.0000   -153.08138
   94     2.1833     0.0000   -153.08079
   95     2.1444     0.0000   -153.07995
   96     2.1056     0.0000   -153.07883
   97     2.0667     0.0000   -153.07743
   98     2.0278     0.0000   -153.07571
   99     1.9889     0.0000   -153.07364
  100     1.9500     0.0000   -153.07118
 ----  ---------  ---------  -----------
  
 1\1\GINC-NSCC-N12\Scan\RHF\6-31G\H6O2\JKIM22\22-Jun-2020\1\\# scan hf/
 6-31g\\2H2_H2_dummy_input_3_trial\\0,1\O\H,1,B1\H,1,B2,2,A1\O,1,B3,2,A
 2,3,D1,0\H,4,B4,1,A3,2,D2,0\H,4,B5,1,A4,2,D3,0\X,1,B6,2,A5,3,D4,0\H,7,
 B7,1,A6,2,D5,0\H,7,B8,4,A6,5,D6,0\\B1=0.97\B2=0.97\A1=109.47122063\B3=
 4.6\A2=125.2645\D1=180.\B4=0.97\A3=125.2645\D2=0.\B5=0.97\A4=125.2645\
 D3=180.\B6=2.3,s,9,-0.03889\A5=125.2645\D4=180.\B7=0.36498\A6=90.,s,9,
 -10.\D5=0.\B8=0.36498\D6=180.\\Version=ES64L-G16RevA.03\HF=-153.076373
 4,-153.0762494,-153.0758757,-153.0752463,-153.0743514,-153.0731771,-15
 3.0717053,-153.0699135,-153.0677747,-153.0652567,-153.0765052,-153.076
 3813,-153.0760077,-153.0753786,-153.074484,-153.0733101,-153.0718388,-
 153.0700475,-153.067909,-153.0653914,-153.076895,-153.0767713,-153.076
 3984,-153.0757702,-153.0748769,-153.0737046,-153.0722351,-153.0704456,
 -153.0683089,-153.0657926,-153.0775227,-153.0773995,-153.0770279,-153.
 076402,-153.0755119,-153.0743433,-153.0728779,-153.0710927,-153.06896,
 -153.066447,-153.0783456,-153.0782233,-153.0778543,-153.0772327,-153.0
 763482,-153.0751864,-153.0737284,-153.0719509,-153.0698254,-153.067318
 4,-153.0792897,-153.0791687,-153.0788037,-153.0781883,-153.0773122,-15
 3.0761604,-153.0747136,-153.0729474,-153.0708327,-153.0683349,-153.080
 2454,-153.0801261,-153.0797659,-153.0791584,-153.0782927,-153.0771534,
 -153.0757203,-153.0739684,-153.0718673,-153.0693815,-153.0810768,-153.
 0809591,-153.0806038,-153.0800043,-153.0791492,-153.0780227,-153.07660
 38,-153.0748667,-153.0727801,-153.0703075,-153.0816459,-153.0815295,-1
 53.0811781,-153.0805846,-153.0797377,-153.078621,-153.0772132,-153.075
 4877,-153.0734128,-153.0709511,-153.0818487,-153.0817328,-153.0813827,
 -153.0807916,-153.0799478,-153.0788348,-153.0774312,-153.0757102,-153.
 0736399,-153.0711825\RMSD=2.001e-09,6.477e-09,6.618e-09,6.857e-09,7.26
 8e-09,7.933e-09,8.897e-09,4.243e-09,4.977e-09,5.733e-09,6.751e-09,8.61
 3e-09,8.872e-09,9.267e-09,9.863e-09,3.165e-09,3.996e-09,4.838e-09,5.70
 0e-09,6.601e-09,7.687e-09,1.998e-09,1.761e-09,2.040e-09,2.619e-09,3.32
 3e-09,4.076e-09,4.843e-09,5.616e-09,6.399e-09,7.845e-09,2.706e-09,2.46
 9e-09,2.486e-09,2.704e-09,3.017e-09,3.357e-09,3.682e-09,3.959e-09,4.16
 5e-09,1.172e-09,2.997e-09,3.045e-09,3.158e-09,3.312e-09,3.516e-09,3.77
 4e-09,3.996e-09,4.001e-09,3.891e-09,1.363e-09,9.525e-09,2.807e-09,3.13
 8e-09,3.224e-09,3.425e-09,3.910e-09,4.720e-09,5.850e-09,7.269e-09,1.66
 0e-09,7.442e-09,1.928e-09,2.680e-09,3.656e-09,4.912e-09,6.441e-09,8.20
 6e-09,2.780e-09,3.047e-09,1.982e-09,9.856e-09,2.211e-09,3.375e-09,4.97
 7e-09,6.888e-09,9.009e-09,2.774e-09,3.073e-09,3.395e-09,2.241e-09,2.16
 1e-09,2.751e-09,4.229e-09,6.153e-09,8.346e-09,2.607e-09,2.925e-09,3.26
 3e-09,3.627e-09,2.421e-09,2.276e-09,2.989e-09,4.594e-09,6.616e-09,8.87
 9e-09,2.648e-09,2.978e-09,3.331e-09,3.711e-09\PG=CS [SG(H6O2)]\\@


 I WISH TO HAVE NO CONNECTION WITH ANY SHIP THAT DOES NOT SAIL FAST,
 FOR I INTEND TO GO IN HARM'S WAY.
     -- JOHN PAUL JONES, USN 1747-1792
 Job cpu time:       0 days  0 hours  9 minutes 30.1 seconds.
 Elapsed time:       0 days  0 hours  1 minutes  2.6 seconds.
 File lengths (MBytes):  RWF=      6 Int=      0 D2E=      0 Chk=      2 Scr=      1
 Normal termination of Gaussian 16 at Mon Jun 22 11:33:56 2020.
