 Entering Gaussian System, Link 0=g16
 Input=2H2_H2_dummy_input_4.com
 Output=2H2_H2_dummy_input_4.log
 Initial command:
 /export/local/g16/l1.exe "/var/tmp/Gau-45208.inp" -scrdir="/var/tmp/"
 Entering Link 1 = /export/local/g16/l1.exe PID=     45209.
  
 Copyright (c) 1988,1990,1992,1993,1995,1998,2003,2009,2016,
            Gaussian, Inc.  All Rights Reserved.
  
 This is part of the Gaussian(R) 16 program.  It is based on
 the Gaussian(R) 09 system (copyright 2009, Gaussian, Inc.),
 the Gaussian(R) 03 system (copyright 2003, Gaussian, Inc.),
 the Gaussian(R) 98 system (copyright 1998, Gaussian, Inc.),
 the Gaussian(R) 94 system (copyright 1995, Gaussian, Inc.),
 the Gaussian 92(TM) system (copyright 1992, Gaussian, Inc.),
 the Gaussian 90(TM) system (copyright 1990, Gaussian, Inc.),
 the Gaussian 88(TM) system (copyright 1988, Gaussian, Inc.),
 the Gaussian 86(TM) system (copyright 1986, Carnegie Mellon
 University), and the Gaussian 82(TM) system (copyright 1983,
 Carnegie Mellon University). Gaussian is a federally registered
 trademark of Gaussian, Inc.
  
 This software contains proprietary and confidential information,
 including trade secrets, belonging to Gaussian, Inc.
  
 This software is provided under written license and may be
 used, copied, transmitted, or stored only in accord with that
 written license.
  
 The following legend is applicable only to US Government
 contracts under FAR:
  
                    RESTRICTED RIGHTS LEGEND
  
 Use, reproduction and disclosure by the US Government is
 subject to restrictions as set forth in subparagraphs (a)
 and (c) of the Commercial Computer Software - Restricted
 Rights clause in FAR 52.227-19.
  
 Gaussian, Inc.
 340 Quinnipiac St., Bldg. 40, Wallingford CT 06492
  
  
 ---------------------------------------------------------------
 Warning -- This program may not be used in any manner that
 competes with the business of Gaussian, Inc. or will provide
 assistance to any competitor of Gaussian, Inc.  The licensee
 of this program is prohibited from giving any competitor of
 Gaussian, Inc. access to this program.  By using this program,
 the user acknowledges that Gaussian, Inc. is engaged in the
 business of creating and licensing software in the field of
 computational chemistry and represents and warrants to the
 licensee that it is not a competitor of Gaussian, Inc. and that
 it will not use this program in any manner prohibited above.
 ---------------------------------------------------------------
  

 Cite this work as:
 Gaussian 16, Revision A.03,
 M. J. Frisch, G. W. Trucks, H. B. Schlegel, G. E. Scuseria, 
 M. A. Robb, J. R. Cheeseman, G. Scalmani, V. Barone, 
 G. A. Petersson, H. Nakatsuji, X. Li, M. Caricato, A. V. Marenich, 
 J. Bloino, B. G. Janesko, R. Gomperts, B. Mennucci, H. P. Hratchian, 
 J. V. Ortiz, A. F. Izmaylov, J. L. Sonnenberg, D. Williams-Young, 
 F. Ding, F. Lipparini, F. Egidi, J. Goings, B. Peng, A. Petrone, 
 T. Henderson, D. Ranasinghe, V. G. Zakrzewski, J. Gao, N. Rega, 
 G. Zheng, W. Liang, M. Hada, M. Ehara, K. Toyota, R. Fukuda, 
 J. Hasegawa, M. Ishida, T. Nakajima, Y. Honda, O. Kitao, H. Nakai, 
 T. Vreven, K. Throssell, J. A. Montgomery, Jr., J. E. Peralta, 
 F. Ogliaro, M. J. Bearpark, J. J. Heyd, E. N. Brothers, K. N. Kudin, 
 V. N. Staroverov, T. A. Keith, R. Kobayashi, J. Normand, 
 K. Raghavachari, A. P. Rendell, J. C. Burant, S. S. Iyengar, 
 J. Tomasi, M. Cossi, J. M. Millam, M. Klene, C. Adamo, R. Cammi, 
 J. W. Ochterski, R. L. Martin, K. Morokuma, O. Farkas, 
 J. B. Foresman, and D. J. Fox, Gaussian, Inc., Wallingford CT, 2016.
 
 ******************************************
 Gaussian 16:  ES64L-G16RevA.03 25-Dec-2016
                16-Jun-2020 
 ******************************************
 %chk=2H2_H2_dummy_input_4.chk
 %nprocshared=12
 Will use up to   12 processors via shared memory.
 ---------------
 # scan hf/6-31g
 ---------------
 1/38=1,60=1,172=1/1,8;
 2/12=2,17=6,18=5,29=3,40=1/2;
 3/5=1,6=6,11=9,25=1,30=1/1,2,3;
 4//1;
 5/5=2,38=5/2;
 6/7=2,8=2,9=2,10=2,18=1,28=1/1;
 1/60=1/8(1);
 99/9=1/99;
 2/29=3/2;
 3/5=1,6=6,11=9,25=1,30=1/1,2,3;
 4/5=5,16=3,69=1/1;
 5/5=2,38=5/2;
 1/60=1/8(-4);
 99/9=1/99;
 --------------------
 2H2_H2_dummy_input_5
 --------------------
 Symbolic Z-matrix:
 Charge =  0 Multiplicity = 1
 O
 H                    1    B1
 H                    1    B2       2    A1
 O                    1    B3       2    A2       3    D1       0
 H                    4    B4       1    A3       2    D2       0
 H                    4    B5       1    A4       2    D3       0
 X                    1    B6       2    A5       3    D4       0
 H                    7    B7       1    A6       2    D5       0
 H                    7    B8       1    A7       2    D6       0
       Variables:
  B1                    0.97                     
  B2                    0.97                     
  A1                  109.471                    
  B3                    4.6                      
  A2                  125.2645                   
  D1                  180.                       
  B4                    0.97                     
  A3                  125.2645                   
  D2                    0.                       
  B5                    0.97                     
  A4                  125.2645                   
  D3                  180.                       
  B6                    2.3    Scan 18    0.03889
  A5                  125.2645 Scan 18  -10.     
  D4                  180.                       
  B7                    0.36498                  
  A6                   90.                       
  D5                    0.                       
  B8                    0.36498                  
  A7                   90.                       
  D6                  180.                       
 
     1 tetrahedral angles replaced.
    1 tetrahedral angles replaced.
 Scan the potential surface.
 Variable   Value     No. Steps Step-Size
 -------- ----------- --------- ---------
    13       2.300000      18      0.0389
    14     125.264500      18    -10.0000
 A total of    361 points will be computed.
 ---------------------------------------------------------------------------------------------------
                            Z-MATRIX (ANGSTROMS AND DEGREES)
   CD    Cent   Atom    N1       Length/X        N2       Alpha/Y        N3        Beta/Z          J
 ---------------------------------------------------------------------------------------------------
      1      1  O 
      2      2  H        1   0.970000(     1)
      3      3  H        1   0.970000(     2)      2  109.471(     9)
      4      4  O        1   4.600000(     3)      2  125.265(    10)      3  180.000(    16)      0
      5      5  H        4   0.970000(     4)      1  125.265(    11)      2    0.000(    17)      0
      6      6  H        4   0.970000(     5)      1  125.265(    12)      2  180.000(    18)      0
      7         X        1   2.300000(     6)      2  125.265(    13)      3  180.000(    19)      0
      8      7  H        7   0.364980(     7)      1   90.000(    14)      2    0.000(    20)      0
      9      8  H        7   0.364980(     8)      1   90.000(    15)      2  180.000(    21)      0
 ---------------------------------------------------------------------------------------------------
                         Z-Matrix orientation:                         
 ---------------------------------------------------------------------
 Center     Atomic      Atomic             Coordinates (Angstroms)
 Number     Number       Type             X           Y           Z
 ---------------------------------------------------------------------
      1          8           0        0.000000    0.000000    0.000000
      2          1           0        0.000000    0.000000    0.970000
      3          1           0        0.914525    0.000000   -0.323333
      4          8           0       -3.755879   -0.000000   -2.655818
      5          1           0       -4.670405   -0.000000   -2.332489
      6          1           0       -3.755879   -0.000000   -3.625818
      7         -1           0       -1.877940   -0.000000   -1.327909
      8          1           0       -2.088661   -0.000000   -1.029905
      9          1           0       -1.667218   -0.000000   -1.625914
 ---------------------------------------------------------------------
                    Distance matrix (angstroms):
                    1          2          3          4          5
     1  O    0.000000
     2  H    0.970000   0.000000
     3  H    0.970000   1.584003   0.000000
     4  O    4.600000   5.220459   5.220456   0.000000
     5  H    5.220459   5.720063   5.935330   0.970000   0.000000
     6  H    5.220459   5.935333   5.720060   0.970000   1.584001
     7  X    2.300000   2.967666   2.967664   2.300000   2.967666
     8  H    2.328779   2.891734   3.085186   2.328779   2.891734
     9  H    2.328779   3.085188   2.891731   2.328779   3.085188
                    6          7          8          9
     6  H    0.000000
     7  X    2.967666   0.000000
     8  H    3.085188   0.364980   0.000000
     9  H    2.891734   0.364980   0.729960   0.000000
 Stoichiometry    H6O2
 Framework group  CS[SG(H6O2)]
 Deg. of freedom    13
 Full point group                 CS      NOp   2
 Largest Abelian subgroup         CS      NOp   2
 Largest concise Abelian subgroup C1      NOp   1
                         Standard orientation:                         
 ---------------------------------------------------------------------
 Center     Atomic      Atomic             Coordinates (Angstroms)
 Number     Number       Type             X           Y           Z
 ---------------------------------------------------------------------
      1          8           0        0.000000   -2.300000    0.000000
      2          1           0        0.792001   -2.860031    0.000000
      3          1           0       -0.792003   -2.860028    0.000000
      4          8           0        0.000000    2.300000   -0.000000
      5          1           0        0.792001    2.860031   -0.000000
      6          1           0       -0.792001    2.860031   -0.000000
      7          1           0        0.364980   -0.000000    0.000000
      8          1           0       -0.364980   -0.000000   -0.000000
 ---------------------------------------------------------------------
 Rotational constants (GHZ):         180.6730268           2.4993853           2.4652812
 Standard basis: 6-31G (6D, 7F)
 There are    26 symmetry adapted cartesian basis functions of A'  symmetry.
 There are     4 symmetry adapted cartesian basis functions of A"  symmetry.
 There are    26 symmetry adapted basis functions of A'  symmetry.
 There are     4 symmetry adapted basis functions of A"  symmetry.
    30 basis functions,    68 primitive gaussians,    30 cartesian basis functions
    11 alpha electrons       11 beta electrons
       nuclear repulsion energy        38.5095581663 Hartrees.
 NAtoms=    8 NActive=    8 NUniq=    8 SFac= 1.00D+00 NAtFMM=   60 NAOKFM=F Big=F
 Integral buffers will be    131072 words long.
 Raffenetti 1 integral format.
 Two-electron integral symmetry is turned on.
 One-electron integrals computed using PRISM.
 NBasis=    30 RedAO= T EigKep=  7.07D-02  NBF=    26     4
 NBsUse=    30 1.00D-06 EigRej= -1.00D+00 NBFU=    26     4
 ExpMin= 1.61D-01 ExpMax= 5.48D+03 ExpMxC= 8.25D+02 IAcc=3 IRadAn=         5 AccDes= 0.00D+00
 Harris functional with IExCor=  205 and IRadAn=       5 diagonalized for initial guess.
 HarFok:  IExCor=  205 AccDes= 0.00D+00 IRadAn=         5 IDoV= 1 UseB2=F ITyADJ=14
 ICtDFT=  3500011 ScaDFX=  1.000000  1.000000  1.000000  1.000000
 FoFCou: FMM=F IPFlag=           0 FMFlag=      100000 FMFlg1=           0
         NFxFlg=           0 DoJE=T BraDBF=F KetDBF=T FulRan=T
         wScrn=  0.000000 ICntrl=       500 IOpCl=  0 I1Cent=   200000004 NGrid=           0
         NMat0=    1 NMatS0=      1 NMatT0=    0 NMatD0=    1 NMtDS0=    0 NMtDT0=    0
 Petite list used in FoFCou.
 Initial guess orbital symmetries:
       Occupied  (A') (A') (A') (A') (A') (A') (A') (A') (A') (A")
                 (A")
       Virtual   (A') (A') (A') (A') (A') (A') (A') (A") (A") (A')
                 (A') (A') (A') (A') (A') (A') (A') (A') (A')
 The electronic state of the initial guess is 1-A'.
 Keep R1 ints in memory in symmetry-blocked form, NReq=2532491.
 Requested convergence on RMS density matrix=1.00D-08 within 128 cycles.
 Requested convergence on MAX density matrix=1.00D-06.
 Requested convergence on             energy=1.00D-06.
 No special actions if energy rises.
 SCF Done:  E(RHF) =  -153.076373366     A.U. after   10 cycles
            NFock= 10  Conv=0.20D-08     -V/T= 1.9998

 **********************************************************************

            Population analysis using the SCF density.

 **********************************************************************

 Orbital symmetries:
       Occupied  (A') (A') (A') (A') (A') (A') (A') (A') (A") (A")
                 (A')
       Virtual   (A') (A') (A') (A') (A') (A') (A') (A') (A') (A')
                 (A") (A") (A') (A') (A') (A') (A') (A') (A')
 The electronic state is 1-A'.
 Alpha  occ. eigenvalues --  -20.54429 -20.54429  -1.33213  -1.33204  -0.69864
 Alpha  occ. eigenvalues --   -0.69859  -0.57279  -0.53810  -0.48511  -0.48506
 Alpha  occ. eigenvalues --   -0.45996
 Alpha virt. eigenvalues --    0.21093   0.21698   0.30575   0.30724   0.31434
 Alpha virt. eigenvalues --    0.91002   1.09389   1.11737   1.15772   1.15910
 Alpha virt. eigenvalues --    1.17874   1.17909   1.21472   1.39311   1.39653
 Alpha virt. eigenvalues --    1.41010   1.57861   1.69165   1.70949
          Condensed to atoms (all electrons):
               1          2          3          4          5          6
     1  O    8.318602   0.253233   0.253233   0.000002  -0.000001  -0.000001
     2  H    0.253233   0.373990  -0.026503  -0.000001   0.000000   0.000000
     3  H    0.253233  -0.026503   0.373990  -0.000001   0.000000   0.000000
     4  O    0.000002  -0.000001  -0.000001   8.318601   0.253233   0.253233
     5  H   -0.000001   0.000000   0.000000   0.253233   0.373991  -0.026503
     6  H   -0.000001   0.000000   0.000000   0.253233  -0.026503   0.373991
     7  H   -0.015392   0.001171   0.000871  -0.015392   0.001171   0.000871
     8  H   -0.015392   0.000871   0.001171  -0.015392   0.000871   0.001171
               7          8
     1  O   -0.015392  -0.015392
     2  H    0.001171   0.000871
     3  H    0.000871   0.001171
     4  O   -0.015392  -0.015392
     5  H    0.001171   0.000871
     6  H    0.000871   0.001171
     7  H    0.608893   0.417998
     8  H    0.417998   0.608894
 Mulliken charges:
               1
     1  O   -0.794284
     2  H    0.397238
     3  H    0.397238
     4  O   -0.794284
     5  H    0.397238
     6  H    0.397238
     7  H   -0.000192
     8  H   -0.000192
 Sum of Mulliken charges =  -0.00000
 Mulliken charges with hydrogens summed into heavy atoms:
               1
     1  O   -0.000000
     4  O    0.000000
 Electronic spatial extent (au):  <R**2>=            441.5930
 Charge=             -0.0000 electrons
 Dipole moment (field-independent basis, Debye):
    X=             -0.0000    Y=              0.0000    Z=             -0.0000  Tot=              0.0000
 Quadrupole moment (field-independent basis, Debye-Ang):
   XX=             -9.6158   YY=              9.2014   ZZ=            -16.5124
   XY=              0.0000   XZ=              0.0000   YZ=             -0.0000
 Traceless Quadrupole moment (field-independent basis, Debye-Ang):
   XX=             -3.9735   YY=             14.8437   ZZ=            -10.8701
   XY=              0.0000   XZ=              0.0000   YZ=             -0.0000
 Octapole moment (field-independent basis, Debye-Ang**2):
  XXX=             -0.0000  YYY=              0.0001  ZZZ=             -0.0000  XYY=             -0.0000
  XXY=             -0.0000  XXZ=              0.0000  XZZ=             -0.0000  YZZ=              0.0000
  YYZ=             -0.0000  XYZ=             -0.0000
 Hexadecapole moment (field-independent basis, Debye-Ang**3):
 XXXX=            -14.1581 YYYY=           -148.8771 ZZZZ=            -12.3389 XXXY=              0.0000
 XXXZ=             -0.0000 YYYX=             -0.0000 YYYZ=             -0.0000 ZZZX=             -0.0000
 ZZZY=              0.0000 XXYY=            -37.9296 XXZZ=             -4.9952 YYZZ=            -84.9672
 XXYZ=              0.0000 YYXZ=              0.0000 ZZXY=             -0.0000
 N-N= 3.850955816633D+01 E-N=-4.408987167253D+02  KE= 1.531088518370D+02
 Symmetry A'   KE= 1.439946831027D+02
 Symmetry A"   KE= 9.114168734323D+00
 Variable Step   Value    
 -------- ---- -----------
    13       1    4.419862
    14       0    2.186278
 ---------------------------------------------------------------------------------------------------
                            Z-MATRIX (ANGSTROMS AND DEGREES)
   CD    Cent   Atom    N1       Length/X        N2       Alpha/Y        N3        Beta/Z          J
 ---------------------------------------------------------------------------------------------------
      1      1  O 
      2      2  H        1   0.970000(     1)
      3      3  H        1   0.970000(     2)      2  109.471(     9)
      4      4  O        1   4.600000(     3)      2  125.265(    10)      3  180.000(    16)      0
      5      5  H        4   0.970000(     4)      1  125.265(    11)      2    0.000(    17)      0
      6      6  H        4   0.970000(     5)      1  125.265(    12)      2  180.000(    18)      0
      7         X        1   2.338890(     6)      2  125.265(    13)      3  180.000(    19)      0
      8      7  H        7   0.364980(     7)      1   90.000(    14)      2    0.000(    20)      0
      9      8  H        7   0.364980(     8)      1   90.000(    15)      2  180.000(    21)      0
 ---------------------------------------------------------------------------------------------------
                         Z-Matrix orientation:                         
 ---------------------------------------------------------------------
 Center     Atomic      Atomic             Coordinates (Angstroms)
 Number     Number       Type             X           Y           Z
 ---------------------------------------------------------------------
      1          8           0        0.000000    0.000000    0.000000
      2          1           0        0.000000    0.000000    0.970000
      3          1           0        0.914525    0.000000   -0.323333
      4          8           0       -3.755879   -0.000000   -2.655818
      5          1           0       -4.670405   -0.000000   -2.332489
      6          1           0       -3.755879   -0.000000   -3.625818
      7         -1           0       -1.909693   -0.000000   -1.350362
      8          1           0       -2.120415   -0.000000   -1.052358
      9          1           0       -1.698971   -0.000000   -1.648367
 ---------------------------------------------------------------------
                    Distance matrix (angstroms):
                    1          2          3          4          5
     1  O    0.000000
     2  H    0.970000   0.000000
     3  H    0.970000   1.584003   0.000000
     4  O    4.600000   5.220459   5.220456   0.000000
     5  H    5.220459   5.720063   5.935330   0.970000   0.000000
     6  H    5.220459   5.935333   5.720060   0.970000   1.584001
     7  X    2.338890   3.005164   3.005161   2.261110   2.930205
     8  H    2.367196   2.930203   3.121272   2.290377   2.853276
     9  H    2.367196   3.121274   2.930201   2.290377   3.049171
                    6          7          8          9
     6  H    0.000000
     7  X    2.930205   0.000000
     8  H    3.049171   0.364980   0.000000
     9  H    2.853276   0.364980   0.729960   0.000000
 Stoichiometry    H6O2
 Framework group  CS[SG(H6O2)]
 Deg. of freedom    13
 Full point group                 CS      NOp   2
 Largest Abelian subgroup         CS      NOp   2
 Largest concise Abelian subgroup C1      NOp   1
                         Standard orientation:                         
 ---------------------------------------------------------------------
 Center     Atomic      Atomic             Coordinates (Angstroms)
 Number     Number       Type             X           Y           Z
 ---------------------------------------------------------------------
      1          8           0        0.000000   -2.303536   -0.000000
      2          1           0        0.792001   -2.863567   -0.000000
      3          1           0       -0.792003   -2.863564   -0.000000
      4          8           0        0.000000    2.296464    0.000000
      5          1           0        0.792001    2.856496    0.000000
      6          1           0       -0.792001    2.856496    0.000000
      7          1           0        0.364980    0.035354    0.000000
      8          1           0       -0.364980    0.035354   -0.000000
 ---------------------------------------------------------------------
 Rotational constants (GHZ):         180.6730268           2.4993496           2.4652465
 Standard basis: 6-31G (6D, 7F)
 There are    26 symmetry adapted cartesian basis functions of A'  symmetry.
 There are     4 symmetry adapted cartesian basis functions of A"  symmetry.
 There are    26 symmetry adapted basis functions of A'  symmetry.
 There are     4 symmetry adapted basis functions of A"  symmetry.
    30 basis functions,    68 primitive gaussians,    30 cartesian basis functions
    11 alpha electrons       11 beta electrons
       nuclear repulsion energy        38.5117259312 Hartrees.
 NAtoms=    8 NActive=    8 NUniq=    8 SFac= 1.00D+00 NAtFMM=   60 NAOKFM=F Big=F
 Integral buffers will be    131072 words long.
 Raffenetti 1 integral format.
 Two-electron integral symmetry is turned on.
 One-electron integrals computed using PRISM.
 NBasis=    30 RedAO= T EigKep=  7.07D-02  NBF=    26     4
 NBsUse=    30 1.00D-06 EigRej= -1.00D+00 NBFU=    26     4
 Initial guess from the checkpoint file:  "2H2_H2_dummy_input_4.chk"
 B after Tr=     0.000000    0.000000    0.000000
         Rot=    1.000000    0.000000    0.000000   -0.000000 Ang=   0.00 deg.
 Initial guess orbital symmetries:
       Occupied  (A') (A') (A') (A') (A') (A') (A') (A') (A") (A")
                 (A')
       Virtual   (A') (A') (A') (A') (A') (A') (A') (A') (A') (A')
                 (A") (A") (A') (A') (A') (A') (A') (A') (A')
 ExpMin= 1.61D-01 ExpMax= 5.48D+03 ExpMxC= 8.25D+02 IAcc=2 IRadAn=         4 AccDes= 0.00D+00
 Harris functional with IExCor=  205 and IRadAn=       4 diagonalized for initial guess.
 HarFok:  IExCor=  205 AccDes= 0.00D+00 IRadAn=         4 IDoV= 1 UseB2=F ITyADJ=14
 ICtDFT=  3500011 ScaDFX=  1.000000  1.000000  1.000000  1.000000
 FoFCou: FMM=F IPFlag=           0 FMFlag=      100000 FMFlg1=           0
         NFxFlg=           0 DoJE=T BraDBF=F KetDBF=T FulRan=T
         wScrn=  0.000000 ICntrl=       500 IOpCl=  0 I1Cent=   200000004 NGrid=           0
         NMat0=    1 NMatS0=      1 NMatT0=    0 NMatD0=    1 NMtDS0=    0 NMtDT0=    0
 Petite list used in FoFCou.
 Keep R1 ints in memory in symmetry-blocked form, NReq=2532539.
 Requested convergence on RMS density matrix=1.00D-08 within 128 cycles.
 Requested convergence on MAX density matrix=1.00D-06.
 Requested convergence on             energy=1.00D-06.
 No special actions if energy rises.
 SCF Done:  E(RHF) =  -153.076249436     A.U. after    7 cycles
            NFock=  7  Conv=0.65D-08     -V/T= 1.9998
 Variable Step   Value    
 -------- ---- -----------
    13       2    4.493353
    14       0    2.186278
 ---------------------------------------------------------------------------------------------------
                            Z-MATRIX (ANGSTROMS AND DEGREES)
   CD    Cent   Atom    N1       Length/X        N2       Alpha/Y        N3        Beta/Z          J
 ---------------------------------------------------------------------------------------------------
      1      1  O 
      2      2  H        1   0.970000(     1)
      3      3  H        1   0.970000(     2)      2  109.471(     9)
      4      4  O        1   4.600000(     3)      2  125.265(    10)      3  180.000(    16)      0
      5      5  H        4   0.970000(     4)      1  125.265(    11)      2    0.000(    17)      0
      6      6  H        4   0.970000(     5)      1  125.265(    12)      2  180.000(    18)      0
      7         X        1   2.377780(     6)      2  125.265(    13)      3  180.000(    19)      0
      8      7  H        7   0.364980(     7)      1   90.000(    14)      2    0.000(    20)      0
      9      8  H        7   0.364980(     8)      1   90.000(    15)      2  180.000(    21)      0
 ---------------------------------------------------------------------------------------------------
                         Z-Matrix orientation:                         
 ---------------------------------------------------------------------
 Center     Atomic      Atomic             Coordinates (Angstroms)
 Number     Number       Type             X           Y           Z
 ---------------------------------------------------------------------
      1          8           0        0.000000    0.000000    0.000000
      2          1           0        0.000000    0.000000    0.970000
      3          1           0        0.914525    0.000000   -0.323333
      4          8           0       -3.755879   -0.000000   -2.655818
      5          1           0       -4.670405   -0.000000   -2.332489
      6          1           0       -3.755879   -0.000000   -3.625818
      7         -1           0       -1.941447   -0.000000   -1.372816
      8          1           0       -2.152168   -0.000000   -1.074811
      9          1           0       -1.730725   -0.000000   -1.670820
 ---------------------------------------------------------------------
                    Distance matrix (angstroms):
                    1          2          3          4          5
     1  O    0.000000
     2  H    0.970000   0.000000
     3  H    0.970000   1.584003   0.000000
     4  O    4.600000   5.220459   5.220456   0.000000
     5  H    5.220459   5.720063   5.935330   0.970000   0.000000
     6  H    5.220459   5.935333   5.720060   0.970000   1.584001
     7  X    2.377780   3.042696   3.042694   2.222220   2.892782
     8  H    2.405628   2.968684   3.157424   2.251993   2.814830
     9  H    2.405628   3.157426   2.968681   2.251993   3.013225
                    6          7          8          9
     6  H    0.000000
     7  X    2.892782   0.000000
     8  H    3.013225   0.364980   0.000000
     9  H    2.814830   0.364980   0.729960   0.000000
 Stoichiometry    H6O2
 Framework group  CS[SG(H6O2)]
 Deg. of freedom    13
 Full point group                 CS      NOp   2
 Largest Abelian subgroup         CS      NOp   2
 Largest concise Abelian subgroup C1      NOp   1
                         Standard orientation:                         
 ---------------------------------------------------------------------
 Center     Atomic      Atomic             Coordinates (Angstroms)
 Number     Number       Type             X           Y           Z
 ---------------------------------------------------------------------
      1          8           0        0.000000   -2.307071   -0.000000
      2          1           0        0.792001   -2.867102    0.000000
      3          1           0       -0.792003   -2.867099   -0.000000
      4          8           0        0.000000    2.292929    0.000000
      5          1           0        0.792001    2.852960    0.000000
      6          1           0       -0.792001    2.852960   -0.000000
      7          1           0        0.364980    0.070709    0.000000
      8          1           0       -0.364980    0.070709   -0.000000
 ---------------------------------------------------------------------
 Rotational constants (GHZ):         180.6730268           2.4992425           2.4651423
 Standard basis: 6-31G (6D, 7F)
 There are    26 symmetry adapted cartesian basis functions of A'  symmetry.
 There are     4 symmetry adapted cartesian basis functions of A"  symmetry.
 There are    26 symmetry adapted basis functions of A'  symmetry.
 There are     4 symmetry adapted basis functions of A"  symmetry.
    30 basis functions,    68 primitive gaussians,    30 cartesian basis functions
    11 alpha electrons       11 beta electrons
       nuclear repulsion energy        38.5182355524 Hartrees.
 NAtoms=    8 NActive=    8 NUniq=    8 SFac= 1.00D+00 NAtFMM=   60 NAOKFM=F Big=F
 Integral buffers will be    131072 words long.
 Raffenetti 1 integral format.
 Two-electron integral symmetry is turned on.
 One-electron integrals computed using PRISM.
 NBasis=    30 RedAO= T EigKep=  7.07D-02  NBF=    26     4
 NBsUse=    30 1.00D-06 EigRej= -1.00D+00 NBFU=    26     4
 Initial guess from the checkpoint file:  "2H2_H2_dummy_input_4.chk"
 B after Tr=    -0.000000   -0.000000   -0.000000
         Rot=    1.000000   -0.000000   -0.000000   -0.000000 Ang=   0.00 deg.
 Initial guess orbital symmetries:
       Occupied  (A') (A') (A') (A') (A') (A') (A') (A') (A") (A")
                 (A')
       Virtual   (A') (A') (A') (A') (A') (A') (A') (A') (A') (A')
                 (A") (A") (A') (A') (A') (A') (A') (A') (A')
 ExpMin= 1.61D-01 ExpMax= 5.48D+03 ExpMxC= 8.25D+02 IAcc=2 IRadAn=         4 AccDes= 0.00D+00
 Harris functional with IExCor=  205 and IRadAn=       4 diagonalized for initial guess.
 HarFok:  IExCor=  205 AccDes= 0.00D+00 IRadAn=         4 IDoV= 1 UseB2=F ITyADJ=14
 ICtDFT=  3500011 ScaDFX=  1.000000  1.000000  1.000000  1.000000
 FoFCou: FMM=F IPFlag=           0 FMFlag=      100000 FMFlg1=           0
         NFxFlg=           0 DoJE=T BraDBF=F KetDBF=T FulRan=T
         wScrn=  0.000000 ICntrl=       500 IOpCl=  0 I1Cent=   200000004 NGrid=           0
         NMat0=    1 NMatS0=      1 NMatT0=    0 NMatD0=    1 NMtDS0=    0 NMtDT0=    0
 Petite list used in FoFCou.
 Keep R1 ints in memory in symmetry-blocked form, NReq=2532539.
 Requested convergence on RMS density matrix=1.00D-08 within 128 cycles.
 Requested convergence on MAX density matrix=1.00D-06.
 Requested convergence on             energy=1.00D-06.
 No special actions if energy rises.
 SCF Done:  E(RHF) =  -153.075875697     A.U. after    7 cycles
            NFock=  7  Conv=0.66D-08     -V/T= 1.9998
 Variable Step   Value    
 -------- ---- -----------
    13       3    4.566844
    14       0    2.186278
 ---------------------------------------------------------------------------------------------------
                            Z-MATRIX (ANGSTROMS AND DEGREES)
   CD    Cent   Atom    N1       Length/X        N2       Alpha/Y        N3        Beta/Z          J
 ---------------------------------------------------------------------------------------------------
      1      1  O 
      2      2  H        1   0.970000(     1)
      3      3  H        1   0.970000(     2)      2  109.471(     9)
      4      4  O        1   4.600000(     3)      2  125.265(    10)      3  180.000(    16)      0
      5      5  H        4   0.970000(     4)      1  125.265(    11)      2    0.000(    17)      0
      6      6  H        4   0.970000(     5)      1  125.265(    12)      2  180.000(    18)      0
      7         X        1   2.416670(     6)      2  125.265(    13)      3  180.000(    19)      0
      8      7  H        7   0.364980(     7)      1   90.000(    14)      2    0.000(    20)      0
      9      8  H        7   0.364980(     8)      1   90.000(    15)      2  180.000(    21)      0
 ---------------------------------------------------------------------------------------------------
                         Z-Matrix orientation:                         
 ---------------------------------------------------------------------
 Center     Atomic      Atomic             Coordinates (Angstroms)
 Number     Number       Type             X           Y           Z
 ---------------------------------------------------------------------
      1          8           0        0.000000    0.000000    0.000000
      2          1           0        0.000000    0.000000    0.970000
      3          1           0        0.914525    0.000000   -0.323333
      4          8           0       -3.755879   -0.000000   -2.655818
      5          1           0       -4.670405   -0.000000   -2.332489
      6          1           0       -3.755879   -0.000000   -3.625818
      7         -1           0       -1.973200   -0.000000   -1.395269
      8          1           0       -2.183922   -0.000000   -1.097264
      9          1           0       -1.762478   -0.000000   -1.693273
 ---------------------------------------------------------------------
                    Distance matrix (angstroms):
                    1          2          3          4          5
     1  O    0.000000
     2  H    0.970000   0.000000
     3  H    0.970000   1.584003   0.000000
     4  O    4.600000   5.220459   5.220456   0.000000
     5  H    5.220459   5.720063   5.935330   0.970000   0.000000
     6  H    5.220459   5.935333   5.720060   0.970000   1.584001
     7  X    2.416670   3.080262   3.080260   2.183330   2.855398
     8  H    2.444075   3.007174   3.193641   2.213626   2.776397
     9  H    2.444075   3.193643   3.007172   2.213626   2.977354
                    6          7          8          9
     6  H    0.000000
     7  X    2.855398   0.000000
     8  H    2.977354   0.364980   0.000000
     9  H    2.776397   0.364980   0.729960   0.000000
 Stoichiometry    H6O2
 Framework group  CS[SG(H6O2)]
 Deg. of freedom    13
 Full point group                 CS      NOp   2
 Largest Abelian subgroup         CS      NOp   2
 Largest concise Abelian subgroup C1      NOp   1
                         Standard orientation:                         
 ---------------------------------------------------------------------
 Center     Atomic      Atomic             Coordinates (Angstroms)
 Number     Number       Type             X           Y           Z
 ---------------------------------------------------------------------
      1          8           0        0.000000   -2.310607    0.000000
      2          1           0        0.792001   -2.870638    0.000000
      3          1           0       -0.792003   -2.870635    0.000000
      4          8           0        0.000000    2.289393   -0.000000
      5          1           0        0.792001    2.849425   -0.000000
      6          1           0       -0.792001    2.849425   -0.000000
      7          1           0        0.364980    0.106063   -0.000000
      8          1           0       -0.364980    0.106063    0.000000
 ---------------------------------------------------------------------
 Rotational constants (GHZ):         180.6730268           2.4990641           2.4649688
 Standard basis: 6-31G (6D, 7F)
 There are    26 symmetry adapted cartesian basis functions of A'  symmetry.
 There are     4 symmetry adapted cartesian basis functions of A"  symmetry.
 There are    26 symmetry adapted basis functions of A'  symmetry.
 There are     4 symmetry adapted basis functions of A"  symmetry.
    30 basis functions,    68 primitive gaussians,    30 cartesian basis functions
    11 alpha electrons       11 beta electrons
       nuclear repulsion energy        38.5291060177 Hartrees.
 NAtoms=    8 NActive=    8 NUniq=    8 SFac= 1.00D+00 NAtFMM=   60 NAOKFM=F Big=F
 Integral buffers will be    131072 words long.
 Raffenetti 1 integral format.
 Two-electron integral symmetry is turned on.
 One-electron integrals computed using PRISM.
 NBasis=    30 RedAO= T EigKep=  7.07D-02  NBF=    26     4
 NBsUse=    30 1.00D-06 EigRej= -1.00D+00 NBFU=    26     4
 Initial guess from the checkpoint file:  "2H2_H2_dummy_input_4.chk"
 B after Tr=     0.000000   -0.000000    0.000000
         Rot=    1.000000   -0.000000   -0.000000   -0.000000 Ang=   0.00 deg.
 Initial guess orbital symmetries:
       Occupied  (A') (A') (A') (A') (A') (A') (A') (A') (A") (A")
                 (A')
       Virtual   (A') (A') (A') (A') (A') (A') (A') (A') (A') (A')
                 (A") (A") (A') (A') (A') (A') (A') (A') (A')
 ExpMin= 1.61D-01 ExpMax= 5.48D+03 ExpMxC= 8.25D+02 IAcc=2 IRadAn=         4 AccDes= 0.00D+00
 Harris functional with IExCor=  205 and IRadAn=       4 diagonalized for initial guess.
 HarFok:  IExCor=  205 AccDes= 0.00D+00 IRadAn=         4 IDoV= 1 UseB2=F ITyADJ=14
 ICtDFT=  3500011 ScaDFX=  1.000000  1.000000  1.000000  1.000000
 FoFCou: FMM=F IPFlag=           0 FMFlag=      100000 FMFlg1=           0
         NFxFlg=           0 DoJE=T BraDBF=F KetDBF=T FulRan=T
         wScrn=  0.000000 ICntrl=       500 IOpCl=  0 I1Cent=   200000004 NGrid=           0
         NMat0=    1 NMatS0=      1 NMatT0=    0 NMatD0=    1 NMtDS0=    0 NMtDT0=    0
 Petite list used in FoFCou.
 Keep R1 ints in memory in symmetry-blocked form, NReq=2532539.
 Requested convergence on RMS density matrix=1.00D-08 within 128 cycles.
 Requested convergence on MAX density matrix=1.00D-06.
 Requested convergence on             energy=1.00D-06.
 No special actions if energy rises.
 SCF Done:  E(RHF) =  -153.075246292     A.U. after    7 cycles
            NFock=  7  Conv=0.69D-08     -V/T= 1.9997
 Variable Step   Value    
 -------- ---- -----------
    13       4    4.640336
    14       0    2.186278
 ---------------------------------------------------------------------------------------------------
                            Z-MATRIX (ANGSTROMS AND DEGREES)
   CD    Cent   Atom    N1       Length/X        N2       Alpha/Y        N3        Beta/Z          J
 ---------------------------------------------------------------------------------------------------
      1      1  O 
      2      2  H        1   0.970000(     1)
      3      3  H        1   0.970000(     2)      2  109.471(     9)
      4      4  O        1   4.600000(     3)      2  125.265(    10)      3  180.000(    16)      0
      5      5  H        4   0.970000(     4)      1  125.265(    11)      2    0.000(    17)      0
      6      6  H        4   0.970000(     5)      1  125.265(    12)      2  180.000(    18)      0
      7         X        1   2.455560(     6)      2  125.265(    13)      3  180.000(    19)      0
      8      7  H        7   0.364980(     7)      1   90.000(    14)      2    0.000(    20)      0
      9      8  H        7   0.364980(     8)      1   90.000(    15)      2  180.000(    21)      0
 ---------------------------------------------------------------------------------------------------
                         Z-Matrix orientation:                         
 ---------------------------------------------------------------------
 Center     Atomic      Atomic             Coordinates (Angstroms)
 Number     Number       Type             X           Y           Z
 ---------------------------------------------------------------------
      1          8           0        0.000000    0.000000    0.000000
      2          1           0        0.000000    0.000000    0.970000
      3          1           0        0.914525    0.000000   -0.323333
      4          8           0       -3.755879   -0.000000   -2.655818
      5          1           0       -4.670405   -0.000000   -2.332489
      6          1           0       -3.755879   -0.000000   -3.625818
      7         -1           0       -2.004954   -0.000000   -1.417722
      8          1           0       -2.215675   -0.000000   -1.119718
      9          1           0       -1.794232   -0.000000   -1.715727
 ---------------------------------------------------------------------
                    Distance matrix (angstroms):
                    1          2          3          4          5
     1  O    0.000000
     2  H    0.970000   0.000000
     3  H    0.970000   1.584003   0.000000
     4  O    4.600000   5.220459   5.220456   0.000000
     5  H    5.220459   5.720063   5.935330   0.970000   0.000000
     6  H    5.220459   5.935333   5.720060   0.970000   1.584001
     7  X    2.455560   3.117861   3.117858   2.144440   2.818054
     8  H    2.482536   3.045675   3.229920   2.175278   2.737976
     9  H    2.482536   3.229922   3.045672   2.175278   2.941559
                    6          7          8          9
     6  H    0.000000
     7  X    2.818054   0.000000
     8  H    2.941559   0.364980   0.000000
     9  H    2.737976   0.364980   0.729960   0.000000
 Stoichiometry    H6O2
 Framework group  CS[SG(H6O2)]
 Deg. of freedom    13
 Full point group                 CS      NOp   2
 Largest Abelian subgroup         CS      NOp   2
 Largest concise Abelian subgroup C1      NOp   1
                         Standard orientation:                         
 ---------------------------------------------------------------------
 Center     Atomic      Atomic             Coordinates (Angstroms)
 Number     Number       Type             X           Y           Z
 ---------------------------------------------------------------------
      1          8           0        0.000000   -2.314142    0.000000
      2          1           0        0.792001   -2.874173    0.000000
      3          1           0       -0.792003   -2.874170    0.000000
      4          8           0        0.000000    2.285858   -0.000000
      5          1           0        0.792001    2.845889   -0.000000
      6          1           0       -0.792001    2.845889   -0.000000
      7          1           0        0.364980    0.141418   -0.000000
      8          1           0       -0.364980    0.141418    0.000000
 ---------------------------------------------------------------------
 Rotational constants (GHZ):         180.6730268           2.4988144           2.4647258
 Standard basis: 6-31G (6D, 7F)
 There are    26 symmetry adapted cartesian basis functions of A'  symmetry.
 There are     4 symmetry adapted cartesian basis functions of A"  symmetry.
 There are    26 symmetry adapted basis functions of A'  symmetry.
 There are     4 symmetry adapted basis functions of A"  symmetry.
    30 basis functions,    68 primitive gaussians,    30 cartesian basis functions
    11 alpha electrons       11 beta electrons
       nuclear repulsion energy        38.5443691216 Hartrees.
 NAtoms=    8 NActive=    8 NUniq=    8 SFac= 1.00D+00 NAtFMM=   60 NAOKFM=F Big=F
 Integral buffers will be    131072 words long.
 Raffenetti 1 integral format.
 Two-electron integral symmetry is turned on.
 One-electron integrals computed using PRISM.
 NBasis=    30 RedAO= T EigKep=  7.07D-02  NBF=    26     4
 NBsUse=    30 1.00D-06 EigRej= -1.00D+00 NBFU=    26     4
 Initial guess from the checkpoint file:  "2H2_H2_dummy_input_4.chk"
 B after Tr=     0.000000    0.000000   -0.000000
         Rot=    1.000000    0.000000   -0.000000   -0.000000 Ang=   0.00 deg.
 Initial guess orbital symmetries:
       Occupied  (A') (A') (A') (A') (A') (A') (A') (A') (A") (A")
                 (A')
       Virtual   (A') (A') (A') (A') (A') (A') (A') (A') (A') (A')
                 (A") (A") (A') (A') (A') (A') (A') (A') (A')
 ExpMin= 1.61D-01 ExpMax= 5.48D+03 ExpMxC= 8.25D+02 IAcc=2 IRadAn=         4 AccDes= 0.00D+00
 Harris functional with IExCor=  205 and IRadAn=       4 diagonalized for initial guess.
 HarFok:  IExCor=  205 AccDes= 0.00D+00 IRadAn=         4 IDoV= 1 UseB2=F ITyADJ=14
 ICtDFT=  3500011 ScaDFX=  1.000000  1.000000  1.000000  1.000000
 FoFCou: FMM=F IPFlag=           0 FMFlag=      100000 FMFlg1=           0
         NFxFlg=           0 DoJE=T BraDBF=F KetDBF=T FulRan=T
         wScrn=  0.000000 ICntrl=       500 IOpCl=  0 I1Cent=   200000004 NGrid=           0
         NMat0=    1 NMatS0=      1 NMatT0=    0 NMatD0=    1 NMtDS0=    0 NMtDT0=    0
 Petite list used in FoFCou.
 Keep R1 ints in memory in symmetry-blocked form, NReq=2532539.
 Requested convergence on RMS density matrix=1.00D-08 within 128 cycles.
 Requested convergence on MAX density matrix=1.00D-06.
 Requested convergence on             energy=1.00D-06.
 No special actions if energy rises.
 SCF Done:  E(RHF) =  -153.074351392     A.U. after    7 cycles
            NFock=  7  Conv=0.73D-08     -V/T= 1.9997
 Variable Step   Value    
 -------- ---- -----------
    13       5    4.713827
    14       0    2.186278
 ---------------------------------------------------------------------------------------------------
                            Z-MATRIX (ANGSTROMS AND DEGREES)
   CD    Cent   Atom    N1       Length/X        N2       Alpha/Y        N3        Beta/Z          J
 ---------------------------------------------------------------------------------------------------
      1      1  O 
      2      2  H        1   0.970000(     1)
      3      3  H        1   0.970000(     2)      2  109.471(     9)
      4      4  O        1   4.600000(     3)      2  125.265(    10)      3  180.000(    16)      0
      5      5  H        4   0.970000(     4)      1  125.265(    11)      2    0.000(    17)      0
      6      6  H        4   0.970000(     5)      1  125.265(    12)      2  180.000(    18)      0
      7         X        1   2.494450(     6)      2  125.265(    13)      3  180.000(    19)      0
      8      7  H        7   0.364980(     7)      1   90.000(    14)      2    0.000(    20)      0
      9      8  H        7   0.364980(     8)      1   90.000(    15)      2  180.000(    21)      0
 ---------------------------------------------------------------------------------------------------
                         Z-Matrix orientation:                         
 ---------------------------------------------------------------------
 Center     Atomic      Atomic             Coordinates (Angstroms)
 Number     Number       Type             X           Y           Z
 ---------------------------------------------------------------------
      1          8           0        0.000000    0.000000    0.000000
      2          1           0        0.000000    0.000000    0.970000
      3          1           0        0.914525    0.000000   -0.323333
      4          8           0       -3.755879   -0.000000   -2.655818
      5          1           0       -4.670405   -0.000000   -2.332489
      6          1           0       -3.755879   -0.000000   -3.625818
      7         -1           0       -2.036707   -0.000000   -1.440175
      8          1           0       -2.247429   -0.000000   -1.142171
      9          1           0       -1.825985   -0.000000   -1.738180
 ---------------------------------------------------------------------
                    Distance matrix (angstroms):
                    1          2          3          4          5
     1  O    0.000000
     2  H    0.970000   0.000000
     3  H    0.970000   1.584003   0.000000
     4  O    4.600000   5.220459   5.220456   0.000000
     5  H    5.220459   5.720063   5.935330   0.970000   0.000000
     6  H    5.220459   5.935333   5.720060   0.970000   1.584001
     7  X    2.494450   3.155491   3.155488   2.105550   2.780753
     8  H    2.521010   3.084186   3.266259   2.136949   2.699569
     9  H    2.521010   3.266261   3.084183   2.136949   2.905844
                    6          7          8          9
     6  H    0.000000
     7  X    2.780753   0.000000
     8  H    2.905844   0.364980   0.000000
     9  H    2.699569   0.364980   0.729960   0.000000
 Stoichiometry    H6O2
 Framework group  CS[SG(H6O2)]
 Deg. of freedom    13
 Full point group                 CS      NOp   2
 Largest Abelian subgroup         CS      NOp   2
 Largest concise Abelian subgroup C1      NOp   1
                         Standard orientation:                         
 ---------------------------------------------------------------------
 Center     Atomic      Atomic             Coordinates (Angstroms)
 Number     Number       Type             X           Y           Z
 ---------------------------------------------------------------------
      1          8           0        0.000000   -2.317677   -0.000000
      2          1           0        0.792001   -2.877709   -0.000000
      3          1           0       -0.792003   -2.877706   -0.000000
      4          8           0        0.000000    2.282323    0.000000
      5          1           0        0.792001    2.842354    0.000000
      6          1           0       -0.792001    2.842354    0.000000
      7          1           0        0.364980    0.176773    0.000000
      8          1           0       -0.364980    0.176773   -0.000000
 ---------------------------------------------------------------------
 Rotational constants (GHZ):         180.6730268           2.4984934           2.4644135
 Standard basis: 6-31G (6D, 7F)
 There are    26 symmetry adapted cartesian basis functions of A'  symmetry.
 There are     4 symmetry adapted cartesian basis functions of A"  symmetry.
 There are    26 symmetry adapted basis functions of A'  symmetry.
 There are     4 symmetry adapted basis functions of A"  symmetry.
    30 basis functions,    68 primitive gaussians,    30 cartesian basis functions
    11 alpha electrons       11 beta electrons
       nuclear repulsion energy        38.5640696892 Hartrees.
 NAtoms=    8 NActive=    8 NUniq=    8 SFac= 1.00D+00 NAtFMM=   60 NAOKFM=F Big=F
 Integral buffers will be    131072 words long.
 Raffenetti 1 integral format.
 Two-electron integral symmetry is turned on.
 One-electron integrals computed using PRISM.
 NBasis=    30 RedAO= T EigKep=  7.07D-02  NBF=    26     4
 NBsUse=    30 1.00D-06 EigRej= -1.00D+00 NBFU=    26     4
 Initial guess from the checkpoint file:  "2H2_H2_dummy_input_4.chk"
 B after Tr=    -0.000000   -0.000000    0.000000
         Rot=    1.000000    0.000000   -0.000000   -0.000000 Ang=   0.00 deg.
 Initial guess orbital symmetries:
       Occupied  (A') (A') (A') (A') (A') (A') (A') (A') (A") (A")
                 (A')
       Virtual   (A') (A') (A') (A') (A') (A') (A') (A') (A') (A')
                 (A") (A") (A') (A') (A') (A') (A') (A') (A')
 ExpMin= 1.61D-01 ExpMax= 5.48D+03 ExpMxC= 8.25D+02 IAcc=2 IRadAn=         4 AccDes= 0.00D+00
 Harris functional with IExCor=  205 and IRadAn=       4 diagonalized for initial guess.
 HarFok:  IExCor=  205 AccDes= 0.00D+00 IRadAn=         4 IDoV= 1 UseB2=F ITyADJ=14
 ICtDFT=  3500011 ScaDFX=  1.000000  1.000000  1.000000  1.000000
 FoFCou: FMM=F IPFlag=           0 FMFlag=      100000 FMFlg1=           0
         NFxFlg=           0 DoJE=T BraDBF=F KetDBF=T FulRan=T
         wScrn=  0.000000 ICntrl=       500 IOpCl=  0 I1Cent=   200000004 NGrid=           0
         NMat0=    1 NMatS0=      1 NMatT0=    0 NMatD0=    1 NMtDS0=    0 NMtDT0=    0
 Petite list used in FoFCou.
 Keep R1 ints in memory in symmetry-blocked form, NReq=2532539.
 Requested convergence on RMS density matrix=1.00D-08 within 128 cycles.
 Requested convergence on MAX density matrix=1.00D-06.
 Requested convergence on             energy=1.00D-06.
 No special actions if energy rises.
 SCF Done:  E(RHF) =  -153.073177099     A.U. after    7 cycles
            NFock=  7  Conv=0.79D-08     -V/T= 1.9997
 Variable Step   Value    
 -------- ---- -----------
    13       6    4.787319
    14       0    2.186278
 ---------------------------------------------------------------------------------------------------
                            Z-MATRIX (ANGSTROMS AND DEGREES)
   CD    Cent   Atom    N1       Length/X        N2       Alpha/Y        N3        Beta/Z          J
 ---------------------------------------------------------------------------------------------------
      1      1  O 
      2      2  H        1   0.970000(     1)
      3      3  H        1   0.970000(     2)      2  109.471(     9)
      4      4  O        1   4.600000(     3)      2  125.265(    10)      3  180.000(    16)      0
      5      5  H        4   0.970000(     4)      1  125.265(    11)      2    0.000(    17)      0
      6      6  H        4   0.970000(     5)      1  125.265(    12)      2  180.000(    18)      0
      7         X        1   2.533340(     6)      2  125.265(    13)      3  180.000(    19)      0
      8      7  H        7   0.364980(     7)      1   90.000(    14)      2    0.000(    20)      0
      9      8  H        7   0.364980(     8)      1   90.000(    15)      2  180.000(    21)      0
 ---------------------------------------------------------------------------------------------------
                         Z-Matrix orientation:                         
 ---------------------------------------------------------------------
 Center     Atomic      Atomic             Coordinates (Angstroms)
 Number     Number       Type             X           Y           Z
 ---------------------------------------------------------------------
      1          8           0        0.000000    0.000000    0.000000
      2          1           0        0.000000    0.000000    0.970000
      3          1           0        0.914525    0.000000   -0.323333
      4          8           0       -3.755879   -0.000000   -2.655818
      5          1           0       -4.670405   -0.000000   -2.332489
      6          1           0       -3.755879   -0.000000   -3.625818
      7         -1           0       -2.068461   -0.000000   -1.462629
      8          1           0       -2.279183   -0.000000   -1.164624
      9          1           0       -1.857739   -0.000000   -1.760633
 ---------------------------------------------------------------------
                    Distance matrix (angstroms):
                    1          2          3          4          5
     1  O    0.000000
     2  H    0.970000   0.000000
     3  H    0.970000   1.584003   0.000000
     4  O    4.600000   5.220459   5.220456   0.000000
     5  H    5.220459   5.720063   5.935330   0.970000   0.000000
     6  H    5.220459   5.935333   5.720060   0.970000   1.584001
     7  X    2.533340   3.193151   3.193148   2.066660   2.743496
     8  H    2.559496   3.122706   3.302656   2.098641   2.661175
     9  H    2.559496   3.302658   3.122703   2.098641   2.870211
                    6          7          8          9
     6  H    0.000000
     7  X    2.743496   0.000000
     8  H    2.870211   0.364980   0.000000
     9  H    2.661175   0.364980   0.729960   0.000000
 Stoichiometry    H6O2
 Framework group  CS[SG(H6O2)]
 Deg. of freedom    13
 Full point group                 CS      NOp   2
 Largest Abelian subgroup         CS      NOp   2
 Largest concise Abelian subgroup C1      NOp   1
                         Standard orientation:                         
 ---------------------------------------------------------------------
 Center     Atomic      Atomic             Coordinates (Angstroms)
 Number     Number       Type             X           Y           Z
 ---------------------------------------------------------------------
      1          8           0        0.000000   -2.321213    0.000000
      2          1           0        0.792001   -2.881244    0.000000
      3          1           0       -0.792003   -2.881241    0.000000
      4          8           0        0.000000    2.278787   -0.000000
      5          1           0        0.792001    2.838818   -0.000000
      6          1           0       -0.792001    2.838818   -0.000000
      7          1           0        0.364980    0.212127   -0.000000
      8          1           0       -0.364980    0.212127    0.000000
 ---------------------------------------------------------------------
 Rotational constants (GHZ):         180.6730268           2.4981012           2.4640320
 Standard basis: 6-31G (6D, 7F)
 There are    26 symmetry adapted cartesian basis functions of A'  symmetry.
 There are     4 symmetry adapted cartesian basis functions of A"  symmetry.
 There are    26 symmetry adapted basis functions of A'  symmetry.
 There are     4 symmetry adapted basis functions of A"  symmetry.
    30 basis functions,    68 primitive gaussians,    30 cartesian basis functions
    11 alpha electrons       11 beta electrons
       nuclear repulsion energy        38.5882658931 Hartrees.
 NAtoms=    8 NActive=    8 NUniq=    8 SFac= 1.00D+00 NAtFMM=   60 NAOKFM=F Big=F
 Integral buffers will be    131072 words long.
 Raffenetti 1 integral format.
 Two-electron integral symmetry is turned on.
 One-electron integrals computed using PRISM.
 NBasis=    30 RedAO= T EigKep=  7.07D-02  NBF=    26     4
 NBsUse=    30 1.00D-06 EigRej= -1.00D+00 NBFU=    26     4
 Initial guess from the checkpoint file:  "2H2_H2_dummy_input_4.chk"
 B after Tr=     0.000000    0.000000   -0.000000
         Rot=    1.000000    0.000000   -0.000000   -0.000000 Ang=   0.00 deg.
 Initial guess orbital symmetries:
       Occupied  (A') (A') (A') (A') (A') (A') (A') (A') (A") (A")
                 (A')
       Virtual   (A') (A') (A') (A') (A') (A') (A') (A') (A') (A')
                 (A") (A") (A') (A') (A') (A') (A') (A') (A')
 ExpMin= 1.61D-01 ExpMax= 5.48D+03 ExpMxC= 8.25D+02 IAcc=2 IRadAn=         4 AccDes= 0.00D+00
 Harris functional with IExCor=  205 and IRadAn=       4 diagonalized for initial guess.
 HarFok:  IExCor=  205 AccDes= 0.00D+00 IRadAn=         4 IDoV= 1 UseB2=F ITyADJ=14
 ICtDFT=  3500011 ScaDFX=  1.000000  1.000000  1.000000  1.000000
 FoFCou: FMM=F IPFlag=           0 FMFlag=      100000 FMFlg1=           0
         NFxFlg=           0 DoJE=T BraDBF=F KetDBF=T FulRan=T
         wScrn=  0.000000 ICntrl=       500 IOpCl=  0 I1Cent=   200000004 NGrid=           0
         NMat0=    1 NMatS0=      1 NMatT0=    0 NMatD0=    1 NMtDS0=    0 NMtDT0=    0
 Petite list used in FoFCou.
 Keep R1 ints in memory in symmetry-blocked form, NReq=2532587.
 Requested convergence on RMS density matrix=1.00D-08 within 128 cycles.
 Requested convergence on MAX density matrix=1.00D-06.
 Requested convergence on             energy=1.00D-06.
 No special actions if energy rises.
 SCF Done:  E(RHF) =  -153.071705309     A.U. after    7 cycles
            NFock=  7  Conv=0.89D-08     -V/T= 1.9996
 Variable Step   Value    
 -------- ---- -----------
    13       7    4.860810
    14       0    2.186278
 ---------------------------------------------------------------------------------------------------
                            Z-MATRIX (ANGSTROMS AND DEGREES)
   CD    Cent   Atom    N1       Length/X        N2       Alpha/Y        N3        Beta/Z          J
 ---------------------------------------------------------------------------------------------------
      1      1  O 
      2      2  H        1   0.970000(     1)
      3      3  H        1   0.970000(     2)      2  109.471(     9)
      4      4  O        1   4.600000(     3)      2  125.265(    10)      3  180.000(    16)      0
      5      5  H        4   0.970000(     4)      1  125.265(    11)      2    0.000(    17)      0
      6      6  H        4   0.970000(     5)      1  125.265(    12)      2  180.000(    18)      0
      7         X        1   2.572230(     6)      2  125.265(    13)      3  180.000(    19)      0
      8      7  H        7   0.364980(     7)      1   90.000(    14)      2    0.000(    20)      0
      9      8  H        7   0.364980(     8)      1   90.000(    15)      2  180.000(    21)      0
 ---------------------------------------------------------------------------------------------------
                         Z-Matrix orientation:                         
 ---------------------------------------------------------------------
 Center     Atomic      Atomic             Coordinates (Angstroms)
 Number     Number       Type             X           Y           Z
 ---------------------------------------------------------------------
      1          8           0        0.000000    0.000000    0.000000
      2          1           0        0.000000    0.000000    0.970000
      3          1           0        0.914525    0.000000   -0.323333
      4          8           0       -3.755879   -0.000000   -2.655818
      5          1           0       -4.670405   -0.000000   -2.332489
      6          1           0       -3.755879   -0.000000   -3.625818
      7         -1           0       -2.100214   -0.000000   -1.485082
      8          1           0       -2.310936   -0.000000   -1.187077
      9          1           0       -1.889492   -0.000000   -1.783086
 ---------------------------------------------------------------------
                    Distance matrix (angstroms):
                    1          2          3          4          5
     1  O    0.000000
     2  H    0.970000   0.000000
     3  H    0.970000   1.584003   0.000000
     4  O    4.600000   5.220459   5.220456   0.000000
     5  H    5.220459   5.720063   5.935330   0.970000   0.000000
     6  H    5.220459   5.935333   5.720060   0.970000   1.584001
     7  X    2.572230   3.230840   3.230837   2.027770   2.706285
     8  H    2.597995   3.161235   3.339109   2.060355   2.622797
     9  H    2.597995   3.339111   3.161232   2.060355   2.834664
                    6          7          8          9
     6  H    0.000000
     7  X    2.706285   0.000000
     8  H    2.834664   0.364980   0.000000
     9  H    2.622797   0.364980   0.729960   0.000000
 Stoichiometry    H6O2
 Framework group  CS[SG(H6O2)]
 Deg. of freedom    13
 Full point group                 CS      NOp   2
 Largest Abelian subgroup         CS      NOp   2
 Largest concise Abelian subgroup C1      NOp   1
                         Standard orientation:                         
 ---------------------------------------------------------------------
 Center     Atomic      Atomic             Coordinates (Angstroms)
 Number     Number       Type             X           Y           Z
 ---------------------------------------------------------------------
      1          8           0        0.000000   -2.324748   -0.000000
      2          1           0        0.792001   -2.884780   -0.000000
      3          1           0       -0.792003   -2.884777   -0.000000
      4          8           0        0.000000    2.275252    0.000000
      5          1           0        0.792001    2.835283    0.000000
      6          1           0       -0.792001    2.835283    0.000000
      7          1           0        0.364980    0.247482    0.000000
      8          1           0       -0.364980    0.247482    0.000000
 ---------------------------------------------------------------------
 Rotational constants (GHZ):         180.6730268           2.4976379           2.4635812
 Standard basis: 6-31G (6D, 7F)
 There are    26 symmetry adapted cartesian basis functions of A'  symmetry.
 There are     4 symmetry adapted cartesian basis functions of A"  symmetry.
 There are    26 symmetry adapted basis functions of A'  symmetry.
 There are     4 symmetry adapted basis functions of A"  symmetry.
    30 basis functions,    68 primitive gaussians,    30 cartesian basis functions
    11 alpha electrons       11 beta electrons
       nuclear repulsion energy        38.6170296688 Hartrees.
 NAtoms=    8 NActive=    8 NUniq=    8 SFac= 1.00D+00 NAtFMM=   60 NAOKFM=F Big=F
 Integral buffers will be    131072 words long.
 Raffenetti 1 integral format.
 Two-electron integral symmetry is turned on.
 One-electron integrals computed using PRISM.
 NBasis=    30 RedAO= T EigKep=  7.07D-02  NBF=    26     4
 NBsUse=    30 1.00D-06 EigRej= -1.00D+00 NBFU=    26     4
 Initial guess from the checkpoint file:  "2H2_H2_dummy_input_4.chk"
 B after Tr=    -0.000000   -0.000000    0.000000
         Rot=    1.000000    0.000000   -0.000000   -0.000000 Ang=   0.00 deg.
 Initial guess orbital symmetries:
       Occupied  (A') (A') (A') (A') (A') (A') (A') (A') (A") (A")
                 (A')
       Virtual   (A') (A') (A') (A') (A') (A') (A') (A') (A') (A')
                 (A") (A") (A') (A') (A') (A') (A') (A') (A')
 ExpMin= 1.61D-01 ExpMax= 5.48D+03 ExpMxC= 8.25D+02 IAcc=2 IRadAn=         4 AccDes= 0.00D+00
 Harris functional with IExCor=  205 and IRadAn=       4 diagonalized for initial guess.
 HarFok:  IExCor=  205 AccDes= 0.00D+00 IRadAn=         4 IDoV= 1 UseB2=F ITyADJ=14
 ICtDFT=  3500011 ScaDFX=  1.000000  1.000000  1.000000  1.000000
 FoFCou: FMM=F IPFlag=           0 FMFlag=      100000 FMFlg1=           0
         NFxFlg=           0 DoJE=T BraDBF=F KetDBF=T FulRan=T
         wScrn=  0.000000 ICntrl=       500 IOpCl=  0 I1Cent=   200000004 NGrid=           0
         NMat0=    1 NMatS0=      1 NMatT0=    0 NMatD0=    1 NMtDS0=    0 NMtDT0=    0
 Petite list used in FoFCou.
 Keep R1 ints in memory in symmetry-blocked form, NReq=2532635.
 Requested convergence on RMS density matrix=1.00D-08 within 128 cycles.
 Requested convergence on MAX density matrix=1.00D-06.
 Requested convergence on             energy=1.00D-06.
 No special actions if energy rises.
 SCF Done:  E(RHF) =  -153.069913531     A.U. after    8 cycles
            NFock=  8  Conv=0.42D-08     -V/T= 1.9996
 Variable Step   Value    
 -------- ---- -----------
    13       8    4.934302
    14       0    2.186278
 ---------------------------------------------------------------------------------------------------
                            Z-MATRIX (ANGSTROMS AND DEGREES)
   CD    Cent   Atom    N1       Length/X        N2       Alpha/Y        N3        Beta/Z          J
 ---------------------------------------------------------------------------------------------------
      1      1  O 
      2      2  H        1   0.970000(     1)
      3      3  H        1   0.970000(     2)      2  109.471(     9)
      4      4  O        1   4.600000(     3)      2  125.265(    10)      3  180.000(    16)      0
      5      5  H        4   0.970000(     4)      1  125.265(    11)      2    0.000(    17)      0
      6      6  H        4   0.970000(     5)      1  125.265(    12)      2  180.000(    18)      0
      7         X        1   2.611120(     6)      2  125.265(    13)      3  180.000(    19)      0
      8      7  H        7   0.364980(     7)      1   90.000(    14)      2    0.000(    20)      0
      9      8  H        7   0.364980(     8)      1   90.000(    15)      2  180.000(    21)      0
 ---------------------------------------------------------------------------------------------------
                         Z-Matrix orientation:                         
 ---------------------------------------------------------------------
 Center     Atomic      Atomic             Coordinates (Angstroms)
 Number     Number       Type             X           Y           Z
 ---------------------------------------------------------------------
      1          8           0        0.000000    0.000000    0.000000
      2          1           0        0.000000    0.000000    0.970000
      3          1           0        0.914525    0.000000   -0.323333
      4          8           0       -3.755879   -0.000000   -2.655818
      5          1           0       -4.670405   -0.000000   -2.332489
      6          1           0       -3.755879   -0.000000   -3.625818
      7         -1           0       -2.131968   -0.000000   -1.507535
      8          1           0       -2.342690   -0.000000   -1.209530
      9          1           0       -1.921246   -0.000000   -1.805539
 ---------------------------------------------------------------------
                    Distance matrix (angstroms):
                    1          2          3          4          5
     1  O    0.000000
     2  H    0.970000   0.000000
     3  H    0.970000   1.584003   0.000000
     4  O    4.600000   5.220459   5.220456   0.000000
     5  H    5.220459   5.720063   5.935330   0.970000   0.000000
     6  H    5.220459   5.935333   5.720060   0.970000   1.584001
     7  X    2.611120   3.268557   3.268555   1.988880   2.669122
     8  H    2.636505   3.199773   3.375617   2.022092   2.584433
     9  H    2.636505   3.375619   3.199770   2.022092   2.799206
                    6          7          8          9
     6  H    0.000000
     7  X    2.669122   0.000000
     8  H    2.799206   0.364980   0.000000
     9  H    2.584433   0.364980   0.729960   0.000000
 Stoichiometry    H6O2
 Framework group  CS[SG(H6O2)]
 Deg. of freedom    13
 Full point group                 CS      NOp   2
 Largest Abelian subgroup         CS      NOp   2
 Largest concise Abelian subgroup C1      NOp   1
                         Standard orientation:                         
 ---------------------------------------------------------------------
 Center     Atomic      Atomic             Coordinates (Angstroms)
 Number     Number       Type             X           Y           Z
 ---------------------------------------------------------------------
      1          8           0        0.000000   -2.328284   -0.000000
      2          1           0        0.792001   -2.888315   -0.000000
      3          1           0       -0.792003   -2.888312   -0.000000
      4          8           0        0.000000    2.271716    0.000000
      5          1           0        0.792001    2.831748    0.000000
      6          1           0       -0.792001    2.831748    0.000000
      7          1           0        0.364980    0.282836    0.000000
      8          1           0       -0.364980    0.282836   -0.000000
 ---------------------------------------------------------------------
 Rotational constants (GHZ):         180.6730268           2.4971035           2.4630612
 Standard basis: 6-31G (6D, 7F)
 There are    26 symmetry adapted cartesian basis functions of A'  symmetry.
 There are     4 symmetry adapted cartesian basis functions of A"  symmetry.
 There are    26 symmetry adapted basis functions of A'  symmetry.
 There are     4 symmetry adapted basis functions of A"  symmetry.
    30 basis functions,    68 primitive gaussians,    30 cartesian basis functions
    11 alpha electrons       11 beta electrons
       nuclear repulsion energy        38.6504472314 Hartrees.
 NAtoms=    8 NActive=    8 NUniq=    8 SFac= 1.00D+00 NAtFMM=   60 NAOKFM=F Big=F
 Integral buffers will be    131072 words long.
 Raffenetti 1 integral format.
 Two-electron integral symmetry is turned on.
 One-electron integrals computed using PRISM.
 NBasis=    30 RedAO= T EigKep=  7.07D-02  NBF=    26     4
 NBsUse=    30 1.00D-06 EigRej= -1.00D+00 NBFU=    26     4
 Initial guess from the checkpoint file:  "2H2_H2_dummy_input_4.chk"
 B after Tr=    -0.000000   -0.000000    0.000000
         Rot=    1.000000    0.000000    0.000000   -0.000000 Ang=   0.00 deg.
 Initial guess orbital symmetries:
       Occupied  (A') (A') (A') (A') (A') (A') (A') (A') (A") (A")
                 (A')
       Virtual   (A') (A') (A') (A') (A') (A') (A') (A') (A') (A')
                 (A") (A") (A') (A') (A') (A') (A') (A') (A')
 ExpMin= 1.61D-01 ExpMax= 5.48D+03 ExpMxC= 8.25D+02 IAcc=2 IRadAn=         4 AccDes= 0.00D+00
 Harris functional with IExCor=  205 and IRadAn=       4 diagonalized for initial guess.
 HarFok:  IExCor=  205 AccDes= 0.00D+00 IRadAn=         4 IDoV= 1 UseB2=F ITyADJ=14
 ICtDFT=  3500011 ScaDFX=  1.000000  1.000000  1.000000  1.000000
 FoFCou: FMM=F IPFlag=           0 FMFlag=      100000 FMFlg1=           0
         NFxFlg=           0 DoJE=T BraDBF=F KetDBF=T FulRan=T
         wScrn=  0.000000 ICntrl=       500 IOpCl=  0 I1Cent=   200000004 NGrid=           0
         NMat0=    1 NMatS0=      1 NMatT0=    0 NMatD0=    1 NMtDS0=    0 NMtDT0=    0
 Petite list used in FoFCou.
 Keep R1 ints in memory in symmetry-blocked form, NReq=2532635.
 Requested convergence on RMS density matrix=1.00D-08 within 128 cycles.
 Requested convergence on MAX density matrix=1.00D-06.
 Requested convergence on             energy=1.00D-06.
 No special actions if energy rises.
 SCF Done:  E(RHF) =  -153.067774663     A.U. after    8 cycles
            NFock=  8  Conv=0.50D-08     -V/T= 1.9995
 Variable Step   Value    
 -------- ---- -----------
    13       9    5.007793
    14       0    2.186278
 ---------------------------------------------------------------------------------------------------
                            Z-MATRIX (ANGSTROMS AND DEGREES)
   CD    Cent   Atom    N1       Length/X        N2       Alpha/Y        N3        Beta/Z          J
 ---------------------------------------------------------------------------------------------------
      1      1  O 
      2      2  H        1   0.970000(     1)
      3      3  H        1   0.970000(     2)      2  109.471(     9)
      4      4  O        1   4.600000(     3)      2  125.265(    10)      3  180.000(    16)      0
      5      5  H        4   0.970000(     4)      1  125.265(    11)      2    0.000(    17)      0
      6      6  H        4   0.970000(     5)      1  125.265(    12)      2  180.000(    18)      0
      7         X        1   2.650010(     6)      2  125.265(    13)      3  180.000(    19)      0
      8      7  H        7   0.364980(     7)      1   90.000(    14)      2    0.000(    20)      0
      9      8  H        7   0.364980(     8)      1   90.000(    15)      2  180.000(    21)      0
 ---------------------------------------------------------------------------------------------------
                         Z-Matrix orientation:                         
 ---------------------------------------------------------------------
 Center     Atomic      Atomic             Coordinates (Angstroms)
 Number     Number       Type             X           Y           Z
 ---------------------------------------------------------------------
      1          8           0        0.000000    0.000000    0.000000
      2          1           0        0.000000    0.000000    0.970000
      3          1           0        0.914525    0.000000   -0.323333
      4          8           0       -3.755879   -0.000000   -2.655818
      5          1           0       -4.670405   -0.000000   -2.332489
      6          1           0       -3.755879   -0.000000   -3.625818
      7         -1           0       -2.163721   -0.000000   -1.529988
      8          1           0       -2.374443   -0.000000   -1.231984
      9          1           0       -1.952999   -0.000000   -1.827993
 ---------------------------------------------------------------------
                    Distance matrix (angstroms):
                    1          2          3          4          5
     1  O    0.000000
     2  H    0.970000   0.000000
     3  H    0.970000   1.584003   0.000000
     4  O    4.600000   5.220459   5.220456   0.000000
     5  H    5.220459   5.720063   5.935330   0.970000   0.000000
     6  H    5.220459   5.935333   5.720060   0.970000   1.584001
     7  X    2.650010   3.306302   3.306299   1.949990   2.632009
     8  H    2.675026   3.238319   3.412177   1.983853   2.546086
     9  H    2.675026   3.412180   3.238317   1.983853   2.763840
                    6          7          8          9
     6  H    0.000000
     7  X    2.632009   0.000000
     8  H    2.763840   0.364980   0.000000
     9  H    2.546086   0.364980   0.729960   0.000000
 Stoichiometry    H6O2
 Framework group  CS[SG(H6O2)]
 Deg. of freedom    13
 Full point group                 CS      NOp   2
 Largest Abelian subgroup         CS      NOp   2
 Largest concise Abelian subgroup C1      NOp   1
                         Standard orientation:                         
 ---------------------------------------------------------------------
 Center     Atomic      Atomic             Coordinates (Angstroms)
 Number     Number       Type             X           Y           Z
 ---------------------------------------------------------------------
      1          8           0        0.000000   -2.331819    0.000000
      2          1           0        0.792001   -2.891851    0.000000
      3          1           0       -0.792003   -2.891847    0.000000
      4          8           0        0.000000    2.268181   -0.000000
      5          1           0        0.792001    2.828212   -0.000000
      6          1           0       -0.792001    2.828212   -0.000000
      7          1           0        0.364980    0.318191   -0.000000
      8          1           0       -0.364980    0.318191   -0.000000
 ---------------------------------------------------------------------
 Rotational constants (GHZ):         180.6730268           2.4964981           2.4624722
 Standard basis: 6-31G (6D, 7F)
 There are    26 symmetry adapted cartesian basis functions of A'  symmetry.
 There are     4 symmetry adapted cartesian basis functions of A"  symmetry.
 There are    26 symmetry adapted basis functions of A'  symmetry.
 There are     4 symmetry adapted basis functions of A"  symmetry.
    30 basis functions,    68 primitive gaussians,    30 cartesian basis functions
    11 alpha electrons       11 beta electrons
       nuclear repulsion energy        38.6886197020 Hartrees.
 NAtoms=    8 NActive=    8 NUniq=    8 SFac= 1.00D+00 NAtFMM=   60 NAOKFM=F Big=F
 Integral buffers will be    131072 words long.
 Raffenetti 1 integral format.
 Two-electron integral symmetry is turned on.
 One-electron integrals computed using PRISM.
 NBasis=    30 RedAO= T EigKep=  7.07D-02  NBF=    26     4
 NBsUse=    30 1.00D-06 EigRej= -1.00D+00 NBFU=    26     4
 Initial guess from the checkpoint file:  "2H2_H2_dummy_input_4.chk"
 B after Tr=     0.000000    0.000000    0.000000
         Rot=    1.000000   -0.000000   -0.000000   -0.000000 Ang=   0.00 deg.
 Initial guess orbital symmetries:
       Occupied  (A') (A') (A') (A') (A') (A') (A') (A') (A") (A")
                 (A')
       Virtual   (A') (A') (A') (A') (A') (A') (A') (A') (A') (A')
                 (A") (A") (A') (A') (A') (A') (A') (A') (A')
 ExpMin= 1.61D-01 ExpMax= 5.48D+03 ExpMxC= 8.25D+02 IAcc=2 IRadAn=         4 AccDes= 0.00D+00
 Harris functional with IExCor=  205 and IRadAn=       4 diagonalized for initial guess.
 HarFok:  IExCor=  205 AccDes= 0.00D+00 IRadAn=         4 IDoV= 1 UseB2=F ITyADJ=14
 ICtDFT=  3500011 ScaDFX=  1.000000  1.000000  1.000000  1.000000
 FoFCou: FMM=F IPFlag=           0 FMFlag=      100000 FMFlg1=           0
         NFxFlg=           0 DoJE=T BraDBF=F KetDBF=T FulRan=T
         wScrn=  0.000000 ICntrl=       500 IOpCl=  0 I1Cent=   200000004 NGrid=           0
         NMat0=    1 NMatS0=      1 NMatT0=    0 NMatD0=    1 NMtDS0=    0 NMtDT0=    0
 Petite list used in FoFCou.
 Keep R1 ints in memory in symmetry-blocked form, NReq=2532635.
 Requested convergence on RMS density matrix=1.00D-08 within 128 cycles.
 Requested convergence on MAX density matrix=1.00D-06.
 Requested convergence on             energy=1.00D-06.
 No special actions if energy rises.
 SCF Done:  E(RHF) =  -153.065256727     A.U. after    8 cycles
            NFock=  8  Conv=0.57D-08     -V/T= 1.9994
 Variable Step   Value    
 -------- ---- -----------
    13      10    5.081285
    14       0    2.186278
 ---------------------------------------------------------------------------------------------------
                            Z-MATRIX (ANGSTROMS AND DEGREES)
   CD    Cent   Atom    N1       Length/X        N2       Alpha/Y        N3        Beta/Z          J
 ---------------------------------------------------------------------------------------------------
      1      1  O 
      2      2  H        1   0.970000(     1)
      3      3  H        1   0.970000(     2)      2  109.471(     9)
      4      4  O        1   4.600000(     3)      2  125.265(    10)      3  180.000(    16)      0
      5      5  H        4   0.970000(     4)      1  125.265(    11)      2    0.000(    17)      0
      6      6  H        4   0.970000(     5)      1  125.265(    12)      2  180.000(    18)      0
      7         X        1   2.688900(     6)      2  125.265(    13)      3  180.000(    19)      0
[...]
  114     3.0000    75.2645   -153.09317
  115     2.3000    65.2645   -153.08694
  116     2.3389    65.2645   -153.08781
  117     2.3778    65.2645   -153.08856
  118     2.4167    65.2645   -153.08921
  119     2.4556    65.2645   -153.08978
  120     2.4945    65.2645   -153.09027
  121     2.5333    65.2645   -153.09069
  122     2.5722    65.2645   -153.09106
  123     2.6111    65.2645   -153.09138
  124     2.6500    65.2645   -153.09165
  125     2.6889    65.2645   -153.09188
  126     2.7278    65.2645   -153.09208
  127     2.7667    65.2645   -153.09225
  128     2.8056    65.2645   -153.09239
  129     2.8445    65.2645   -153.09251
  130     2.8834    65.2645   -153.09262
  131     2.9222    65.2645   -153.09270
  132     2.9611    65.2645   -153.09277
  133     3.0000    65.2645   -153.09283
  134     2.3000    55.2645   -153.08558
  135     2.3389    55.2645   -153.08660
  136     2.3778    55.2645   -153.08750
  137     2.4167    55.2645   -153.08828
  138     2.4556    55.2645   -153.08895
  139     2.4945    55.2645   -153.08954
  140     2.5333    55.2645   -153.09005
  141     2.5722    55.2645   -153.09049
  142     2.6111    55.2645   -153.09087
  143     2.6500    55.2645   -153.09119
  144     2.6889    55.2645   -153.09148
  145     2.7278    55.2645   -153.09172
  146     2.7667    55.2645   -153.09192
  147     2.8056    55.2645   -153.09210
  148     2.8445    55.2645   -153.09225
  149     2.8834    55.2645   -153.09238
  150     2.9222    55.2645   -153.09249
  151     2.9611    55.2645   -153.09258
  152     3.0000    55.2645   -153.09266
  153     2.3000    45.2645   -153.08336
  154     2.3389    45.2645   -153.08466
  155     2.3778    45.2645   -153.08580
  156     2.4167    45.2645   -153.08679
  157     2.4556    45.2645   -153.08766
  158     2.4945    45.2645   -153.08841
  159     2.5333    45.2645   -153.08907
  160     2.5722    45.2645   -153.08964
  161     2.6111    45.2645   -153.09013
  162     2.6500    45.2645   -153.09056
  163     2.6889    45.2645   -153.09093
  164     2.7278    45.2645   -153.09125
  165     2.7667    45.2645   -153.09152
  166     2.8056    45.2645   -153.09176
  167     2.8445    45.2645   -153.09196
  168     2.8834    45.2645   -153.09213
  169     2.9222    45.2645   -153.09228
  170     2.9611    45.2645   -153.09240
  171     3.0000    45.2645   -153.09251
  172     2.3000    35.2645   -153.08024
  173     2.3389    35.2645   -153.08192
  174     2.3778    35.2645   -153.08339
  175     2.4167    35.2645   -153.08469
  176     2.4556    35.2645   -153.08582
  177     2.4945    35.2645   -153.08680
  178     2.5333    35.2645   -153.08767
  179     2.5722    35.2645   -153.08842
  180     2.6111    35.2645   -153.08908
  181     2.6500    35.2645   -153.08965
  182     2.6889    35.2645   -153.09014
  183     2.7278    35.2645   -153.09057
  184     2.7667    35.2645   -153.09094
  185     2.8056    35.2645   -153.09126
  186     2.8445    35.2645   -153.09154
  187     2.8834    35.2645   -153.09178
  188     2.9222    35.2645   -153.09198
  189     2.9611    35.2645   -153.09216
  190     3.0000    35.2645   -153.09230
  191     2.3000    25.2645   -153.07659
  192     2.3389    25.2645   -153.07870
  193     2.3778    25.2645   -153.08055
  194     2.4167    25.2645   -153.08218
  195     2.4556    25.2645   -153.08362
  196     2.4945    25.2645   -153.08488
  197     2.5333    25.2645   -153.08598
  198     2.5722    25.2645   -153.08695
  199     2.6111    25.2645   -153.08779
  200     2.6500    25.2645   -153.08853
  201     2.6889    25.2645   -153.08918
  202     2.7278    25.2645   -153.08974
  203     2.7667    25.2645   -153.09023
  204     2.8056    25.2645   -153.09065
  205     2.8445    25.2645   -153.09102
  206     2.8834    25.2645   -153.09133
  207     2.9222    25.2645   -153.09161
  208     2.9611    25.2645   -153.09184
  209     3.0000    25.2645   -153.09204
  210     2.3000    15.2645   -153.07311
  211     2.3389    15.2645   -153.07561
  212     2.3778    15.2645   -153.07781
  213     2.4167    15.2645   -153.07975
  214     2.4556    15.2645   -153.08147
  215     2.4945    15.2645   -153.08298
  216     2.5333    15.2645   -153.08431
  217     2.5722    15.2645   -153.08548
  218     2.6111    15.2645   -153.08651
  219     2.6500    15.2645   -153.08741
  220     2.6889    15.2645   -153.08820
  221     2.7278    15.2645   -153.08889
  222     2.7667    15.2645   -153.08949
  223     2.8056    15.2645   -153.09002
  224     2.8445    15.2645   -153.09047
  225     2.8834    15.2645   -153.09087
  226     2.9222    15.2645   -153.09121
  227     2.9611    15.2645   -153.09151
  228     3.0000    15.2645   -153.09176
  229     2.3000     5.2645   -153.07050
  230     2.3389     5.2645   -153.07327
  231     2.3778     5.2645   -153.07573
  232     2.4167     5.2645   -153.07790
  233     2.4556     5.2645   -153.07982
  234     2.4945     5.2645   -153.08152
  235     2.5333     5.2645   -153.08302
  236     2.5722     5.2645   -153.08434
  237     2.6111     5.2645   -153.08550
  238     2.6500     5.2645   -153.08653
  239     2.6889     5.2645   -153.08743
  240     2.7278     5.2645   -153.08821
  241     2.7667     5.2645   -153.08891
  242     2.8056     5.2645   -153.08951
  243     2.8445     5.2645   -153.09003
  244     2.8834     5.2645   -153.09049
  245     2.9222     5.2645   -153.09089
  246     2.9611     5.2645   -153.09123
  247     3.0000     5.2645   -153.09153
  248     2.3000    -4.7355   -153.06921
  249     2.3389    -4.7355   -153.07211
  250     2.3778    -4.7355   -153.07469
  251     2.4167    -4.7355   -153.07697
  252     2.4556    -4.7355   -153.07899
  253     2.4945    -4.7355   -153.08078
  254     2.5333    -4.7355   -153.08236
  255     2.5722    -4.7355   -153.08375
  256     2.6111    -4.7355   -153.08499
  257     2.6500    -4.7355   -153.08607
  258     2.6889    -4.7355   -153.08702
  259     2.7278    -4.7355   -153.08786
  260     2.7667    -4.7355   -153.08860
  261     2.8056    -4.7355   -153.08924
  262     2.8445    -4.7355   -153.08980
  263     2.8834    -4.7355   -153.09029
  264     2.9222    -4.7355   -153.09071
  265     2.9611    -4.7355   -153.09108
  266     3.0000    -4.7355   -153.09140
  267     2.3000   -14.7355   -153.06950
  268     2.3389   -14.7355   -153.07237
  269     2.3778   -14.7355   -153.07491
  270     2.4167   -14.7355   -153.07716
  271     2.4556   -14.7355   -153.07915
  272     2.4945   -14.7355   -153.08092
  273     2.5333   -14.7355   -153.08248
  274     2.5722   -14.7355   -153.08386
  275     2.6111   -14.7355   -153.08507
  276     2.6500   -14.7355   -153.08614
  277     2.6889   -14.7355   -153.08708
  278     2.7278   -14.7355   -153.08791
  279     2.7667   -14.7355   -153.08863
  280     2.8056   -14.7355   -153.08927
  281     2.8445   -14.7355   -153.08982
  282     2.8834   -14.7355   -153.09030
  283     2.9222   -14.7355   -153.09072
  284     2.9611   -14.7355   -153.09108
  285     3.0000   -14.7355   -153.09139
  286     2.3000   -24.7355   -153.07129
  287     2.3389   -24.7355   -153.07394
  288     2.3778   -24.7355   -153.07629
  289     2.4167   -24.7355   -153.07838
  290     2.4556   -24.7355   -153.08022
  291     2.4945   -24.7355   -153.08186
  292     2.5333   -24.7355   -153.08330
  293     2.5722   -24.7355   -153.08457
  294     2.6111   -24.7355   -153.08569
  295     2.6500   -24.7355   -153.08668
  296     2.6889   -24.7355   -153.08755
  297     2.7278   -24.7355   -153.08831
  298     2.7667   -24.7355   -153.08898
  299     2.8056   -24.7355   -153.08956
  300     2.8445   -24.7355   -153.09007
  301     2.8834   -24.7355   -153.09051
  302     2.9222   -24.7355   -153.09089
  303     2.9611   -24.7355   -153.09122
  304     3.0000   -24.7355   -153.09151
  305     2.3000   -34.7355   -153.07381
  306     2.3389   -34.7355   -153.07617
  307     2.3778   -34.7355   -153.07825
  308     2.4167   -34.7355   -153.08010
  309     2.4556   -34.7355   -153.08173
  310     2.4945   -34.7355   -153.08318
  311     2.5333   -34.7355   -153.08445
  312     2.5722   -34.7355   -153.08558
  313     2.6111   -34.7355   -153.08657
  314     2.6500   -34.7355   -153.08744
  315     2.6889   -34.7355   -153.08820
  316     2.7278   -34.7355   -153.08887
  317     2.7667   -34.7355   -153.08946
  318     2.8056   -34.7355   -153.08997
  319     2.8445   -34.7355   -153.09042
  320     2.8834   -34.7355   -153.09081
  321     2.9222   -34.7355   -153.09114
  322     2.9611   -34.7355   -153.09143
  323     3.0000   -34.7355   -153.09169
  324     2.3000   -44.7355   -153.07594
  325     2.3389   -44.7355   -153.07804
  326     2.3778   -44.7355   -153.07990
  327     2.4167   -44.7355   -153.08155
  328     2.4556   -44.7355   -153.08301
  329     2.4945   -44.7355   -153.08429
  330     2.5333   -44.7355   -153.08543
  331     2.5722   -44.7355   -153.08643
  332     2.6111   -44.7355   -153.08731
  333     2.6500   -44.7355   -153.08808
  334     2.6889   -44.7355   -153.08876
  335     2.7278   -44.7355   -153.08935
  336     2.7667   -44.7355   -153.08987
  337     2.8056   -44.7355   -153.09032
  338     2.8445   -44.7355   -153.09071
  339     2.8834   -44.7355   -153.09106
  340     2.9222   -44.7355   -153.09135
  341     2.9611   -44.7355   -153.09161
  342     3.0000   -44.7355   -153.09183
  343     2.3000   -54.7355   -153.07676
  344     2.3389   -54.7355   -153.07877
  345     2.3778   -54.7355   -153.08054
  346     2.4167   -54.7355   -153.08211
  347     2.4556   -54.7355   -153.08350
  348     2.4945   -54.7355   -153.08472
  349     2.5333   -54.7355   -153.08580
  350     2.5722   -54.7355   -153.08675
  351     2.6111   -54.7355   -153.08759
  352     2.6500   -54.7355   -153.08832
  353     2.6889   -54.7355   -153.08897
  354     2.7278   -54.7355   -153.08953
  355     2.7667   -54.7355   -153.09002
  356     2.8056   -54.7355   -153.09045
  357     2.8445   -54.7355   -153.09083
  358     2.8834   -54.7355   -153.09115
  359     2.9222   -54.7355   -153.09144
  360     2.9611   -54.7355   -153.09168
  361     3.0000   -54.7355   -153.09189
 ----  ---------  ---------  -----------
  
 1\1\GINC-NSCC-N14\Scan\RHF\6-31G\H6O2\JKIM22\16-Jun-2020\1\\# scan hf/
 6-31g\\2H2_H2_dummy_input_5\\0,1\O\H,1,B1\H,1,B2,2,A1\O,1,B3,2,A2,3,D1
 ,0\H,4,B4,1,A3,2,D2,0\H,4,B5,1,A4,2,D3,0\X,1,B6,2,A5,3,D4,0\H,7,B7,1,A
 6,2,D5,0\H,7,B8,1,A7,2,D6,0\\B1=0.97\B2=0.97\A1=109.47122063\B3=4.6\A2
 =125.2645\D1=180.\B4=0.97\A3=125.2645\D2=0.\B5=0.97\A4=125.2645\D3=180
 .\B6=2.3,s,18,0.03889\A5=125.2645,s,18,-10.\D4=180.\B7=0.36498\A6=90.\
 D5=0.\B8=0.36498\A7=90.\D6=180.\\Version=ES64L-G16RevA.03\HF=-153.0763
 734,-153.0762494,-153.0758757,-153.0752463,-153.0743514,-153.0731771,-
 153.0717053,-153.0699135,-153.0677747,-153.0652567,-153.0623226,-153.0
 589294,-153.0550287,-153.0505653,-153.0454774,-153.0396958,-153.033143
 4,-153.0257353,-153.017378,-153.0790783,-153.0792846,-153.0792952,-153
 .0791125,-153.0787361,-153.0781633,-153.0773886,-153.0764041,-153.0751
 995,-153.073762,-153.0720763,-153.0701249,-153.0678878,-153.0653426,-1
 53.0624646,-153.0592267,-153.0555999,-153.051553,-153.0470533,-153.083
 8481,-153.0845159,-153.0850561,-153.0854792,-153.0857943,-153.0860087,
 -153.0861284,-153.0861583,-153.0861022,-153.0859627,-153.0857418,-153.
 0854406,-153.0850592,-153.0845975,-153.0840543,-153.0834284,-153.08271
 74,-153.0819191,-153.0810303,-153.0867976,-153.0876159,-153.088329,-15
 3.088949,-153.0894866,-153.089951,-153.0903501,-153.0906912,-153.09098
 01,-153.0912223,-153.0914222,-153.0915838,-153.0917105,-153.0918052,-1
 53.0918703,-153.091908,-153.0919202,-153.0919083,-153.0918736,-153.087
 7766,-153.0885841,-153.0892902,-153.089907,-153.0904453,-153.0909146,-
 153.0913231,-153.091678,-153.0919856,-153.0922517,-153.092481,-153.092
 6778,-153.0928458,-153.0929884,-153.0931084,-153.0932084,-153.0932906,
 -153.0933569,-153.0934091,-153.0876759,-153.0884772,-153.0891752,-153.
 0897823,-153.0903098,-153.0907675,-153.091164,-153.0915068,-153.091802
 7,-153.0920574,-153.092276,-153.0924631,-153.0926226,-153.0927579,-153
 .092872,-153.0929677,-153.0930472,-153.0931126,-153.0931658,-153.08694
 45,-153.087809,-153.0885608,-153.0892137,-153.08978,-153.0902705,-153.
 0906945,-153.0910605,-153.0913758,-153.0916469,-153.0918794,-153.09207
 82,-153.0922477,-153.0923919,-153.0925139,-153.0926167,-153.092703,-15
 3.0927749,-153.0928344,-153.0855756,-153.0866022,-153.0874967,-153.088
 2751,-153.0889514,-153.0895383,-153.0900467,-153.0904865,-153.0908663,
 -153.0911936,-153.0914751,-153.0917168,-153.0919238,-153.0921007,-153.
 0922514,-153.0923794,-153.0924879,-153.0925795,-153.0926565,-153.08335
 72,-153.0846582,-153.0857956,-153.086789,-153.0876554,-153.0884099,-15
 3.0890662,-153.0896361,-153.0901302,-153.0905578,-153.0909272,-153.091
 2458,-153.0915199,-153.0917553,-153.0919571,-153.0921295,-153.0922765,
 -153.0924015,-153.0925075,-153.080245,-153.0819226,-153.0833948,-153.0
 846856,-153.0858159,-153.0868046,-153.0876682,-153.0884216,-153.089077
 7,-153.0896483,-153.0901437,-153.0905729,-153.0909442,-153.0912646,-15
 3.0915407,-153.0917779,-153.0919814,-153.0921554,-153.0923039,-153.076
 5934,-153.0786991,-153.0805528,-153.0821836,-153.083617,-153.0848758,-
 153.0859799,-153.0869472,-153.0877934,-153.0885328,-153.0891776,-153.0
 897391,-153.090227,-153.0906503,-153.0910168,-153.0913332,-153.091606,
 -153.0918404,-153.0920415,-153.0731082,-153.0756054,-153.0778098,-153.
 0797549,-153.0814702,-153.0829816,-153.0843122,-153.0854824,-153.08651
 02,-153.0874117,-153.0882012,-153.0888915,-153.089494,-153.0900187,-15
 3.0904749,-153.0908705,-153.0912128,-153.0915083,-153.0917626,-153.070
 4952,-153.0732713,-153.0757276,-153.0779004,-153.0798213,-153.0815186,
 -153.083017,-153.0843385,-153.0855026,-153.0865267,-153.0874262,-153.0
 88215,-153.0889054,-153.0895086,-153.0900344,-153.0904917,-153.0908886
 ,-153.0912321,-153.0915286,-153.0692065,-153.0721131,-153.0746888,-153
 .0769706,-153.0789909,-153.0807785,-153.0823589,-153.0837546,-153.0849
 858,-153.0860702,-153.0870241,-153.0878616,-153.0885956,-153.0892377,-
 153.0897981,-153.0902861,-153.0907102,-153.0910777,-153.0913954,-153.0
 695038,-153.0723679,-153.0749077,-153.0771587,-153.0791526,-153.080917
 2,-153.0824774,-153.0838552,-153.0850706,-153.086141,-153.0870823,-153
 .0879086,-153.0886327,-153.089266,-153.0898187,-153.0903,-153.0907182,
 -153.0910806,-153.091394,-153.0712902,-153.0739415,-153.076293,-153.07
 83771,-153.0802227,-153.0818554,-153.0832981,-153.0845714,-153.0856935
 ,-153.0866811,-153.0875487,-153.0883098,-153.088976,-153.0895583,-153.
 090066,-153.0905079,-153.0908916,-153.091224,-153.0915114,-153.0738137
 ,-153.0761653,-153.0782505,-153.0800978,-153.0817327,-153.0831779,-153
 .0844539,-153.085579,-153.0865696,-153.0874405,-153.088205,-153.088874
 9,-153.0894608,-153.0899724,-153.0904183,-153.0908061,-153.0911426,-15
 3.091434,-153.0916859,-153.0759427,-153.0780421,-153.0799025,-153.0815
 494,-153.0830057,-153.0842919,-153.0854265,-153.086426,-153.0873054,-1
 53.0880778,-153.0887553,-153.0893486,-153.0898673,-153.0903199,-153.09
 07142,-153.091057,-153.0913545,-153.091612,-153.0918345,-153.0767637,-
 153.0787662,-153.08054,-153.0821095,-153.0834967,-153.0847215,-153.085
 8014,-153.0867524,-153.0875887,-153.0883231,-153.0889671,-153.0895309,
 -153.0900236,-153.0904536,-153.0908281,-153.0911537,-153.0914361,-153.
 0916807,-153.091892\RMSD=2.001e-09,6.477e-09,6.617e-09,6.857e-09,7.268
 e-09,7.933e-09,8.897e-09,4.244e-09,4.977e-09,5.733e-09,6.524e-09,7.364
 e-09,8.264e-09,9.230e-09,1.431e-09,1.638e-09,1.873e-09,2.137e-09,2.438
 e-09,8.738e-09,1.556e-09,2.455e-09,3.378e-09,4.215e-09,4.987e-09,5.725
 e-09,6.449e-09,7.172e-09,7.904e-09,8.657e-09,9.442e-09,1.702e-09,1.812
 e-09,1.929e-09,2.059e-09,2.205e-09,2.376e-09,2.582e-09,6.696e-09,9.251
 e-09,9.703e-09,1.843e-09,1.625e-09,1.794e-09,3.016e-09,4.101e-09,4.882
 e-09,5.436e-09,5.833e-09,6.107e-09,6.272e-09,6.339e-09,6.319e-09,6.228
 e-09,6.083e-09,5.902e-09,5.702e-09,5.412e-09,9.909e-09,9.382e-09,8.882
 e-09,8.414e-09,7.991e-09,7.627e-09,7.338e-09,7.140e-09,7.048e-09,7.070
 e-09,7.209e-09,7.455e-09,7.790e-09,8.184e-09,8.524e-09,8.466e-09,8.207
 e-09,8.085e-09,2.022e-09,9.265e-09,8.820e-09,8.437e-09,8.108e-09,7.829
 e-09,7.596e-09,7.408e-09,7.264e-09,7.159e-09,7.089e-09,7.048e-09,7.026
 e-09,7.014e-09,7.001e-09,6.983e-09,6.961e-09,6.936e-09,6.878e-09,5.059
 e-09,9.645e-09,9.348e-09,9.143e-09,9.006e-09,8.913e-09,8.846e-09,8.784
 e-09,8.711e-09,8.615e-09,8.487e-09,8.324e-09,8.124e-09,7.891e-09,7.629
 e-09,7.345e-09,7.047e-09,6.740e-09,6.430e-09,2.589e-09,5.331e-09,4.922
 e-09,4.543e-09,4.182e-09,3.833e-09,3.492e-09,9.961e-09,9.902e-09,9.820
 e-09,9.698e-09,9.528e-09,9.305e-09,9.032e-09,8.715e-09,8.364e-09,7.991
 e-09,7.606e-09,7.220e-09,2.947e-09,6.754e-09,6.148e-09,5.608e-09,5.124
 e-09,4.685e-09,4.280e-09,3.898e-09,3.534e-09,3.184e-09,2.851e-09,2.537
 e-09,2.247e-09,9.851e-09,9.549e-09,9.205e-09,8.828e-09,8.430e-09,8.024
 e-09,3.341e-09,8.535e-09,7.777e-09,7.094e-09,6.480e-09,5.929e-09,5.434
 e-09,4.981e-09,4.560e-09,4.161e-09,3.775e-09,3.400e-09,3.038e-09,9.726
 e-09,9.423e-09,9.100e-09,8.758e-09,8.402e-09,8.041e-09,3.862e-09,1.987
 e-09,9.368e-09,8.588e-09,7.873e-09,7.218e-09,6.616e-09,6.061e-09,5.542
 e-09,5.053e-09,9.997e-09,9.428e-09,8.928e-09,8.487e-09,8.098e-09,7.752
 e-09,7.442e-09,7.161e-09,6.905e-09,2.226e-09,2.476e-09,9.621e-09,8.728
 e-09,7.892e-09,7.114e-09,6.393e-09,5.728e-09,9.664e-09,8.760e-09,7.970
 e-09,7.294e-09,6.724e-09,6.254e-09,5.876e-09,5.582e-09,5.363e-09,5.209
 e-09,5.108e-09,2.757e-09,7.560e-09,6.741e-09,6.005e-09,5.349e-09,4.769
 e-09,4.262e-09,9.395e-09,8.457e-09,7.640e-09,6.939e-09,6.348e-09,5.860
 e-09,5.469e-09,5.168e-09,4.947e-09,4.797e-09,4.709e-09,4.672e-09,3.135
 e-09,8.896e-09,8.074e-09,7.368e-09,6.764e-09,6.248e-09,5.803e-09,5.416
 e-09,5.073e-09,9.964e-09,9.271e-09,8.685e-09,8.193e-09,7.784e-09,7.447
 e-09,7.171e-09,6.947e-09,6.767e-09,6.621e-09,3.344e-09,3.305e-09,3.188
 e-09,3.056e-09,9.491e-09,8.964e-09,8.452e-09,7.950e-09,7.456e-09,6.969
 e-09,6.488e-09,6.014e-09,5.547e-09,5.089e-09,4.642e-09,4.208e-09,3.790
 e-09,9.864e-09,9.568e-09,9.844e-09,3.805e-09,3.504e-09,3.223e-09,2.962
 e-09,2.723e-09,2.503e-09,9.414e-09,8.664e-09,7.927e-09,7.209e-09,6.517
 e-09,5.858e-09,5.234e-09,4.650e-09,4.109e-09,3.611e-09,3.159e-09,2.754
 e-09,4.643e-09,2.986e-09,2.661e-09,2.387e-09,2.156e-09,1.959e-09,9.665
 e-09,8.727e-09,7.816e-09,6.945e-09,6.127e-09,5.370e-09,4.679e-09,4.056
 e-09,3.501e-09,3.013e-09,2.589e-09,2.226e-09,1.918e-09,4.519e-09,1.976
 e-09,1.764e-09,1.587e-09,9.183e-09,8.279e-09,7.371e-09,6.486e-09,5.644
 e-09,4.863e-09,4.154e-09,3.523e-09,2.973e-09,2.504e-09,2.110e-09,1.785
 e-09,1.525e-09,1.321e-09,1.166e-09,3.571e-09,7.242e-09,6.808e-09,6.323
 e-09,5.795e-09,5.236e-09,4.660e-09,9.921e-09,9.725e-09,9.518e-09,9.287
 e-09,9.026e-09,8.729e-09,8.399e-09,8.038e-09,7.657e-09,7.264e-09,6.870
 e-09,6.486e-09,9.865e-09,6.990e-09,6.141e-09,5.400e-09,4.751e-09,4.184
 e-09,3.695e-09,3.278e-09,2.930e-09,2.646e-09,2.419e-09,2.241e-09,2.102
 e-09,1.992e-09,1.900e-09,1.819e-09,1.743e-09,1.667e-09,9.737e-09\PG=CS
  [SG(H6O2)]\\@


      HUMANKIND PERIODICALLY GOES THROUGH A SPEEDUP OF ITS AFFAIRS, 
      THEREBY EXPERIENCING THE RACE BETWEEN THE RENEWABLE VITALITY
      OF THE LIVING, AND THE BECKONING VITIATION OF DECADENCE.
      IN THIS PERIODIC RACE, ANY PAUSE BECOMES A LUXURY.
      ONLY THEN CAN ONE REFLECT THAT ALL IS PERMITTED;
      ALL IS POSSIBLE.

                              -- THE APOCRYPHA OF MUAD'DIB
                                 CHILDREN OF DUNE, BY FRANK HERBERT
 Job cpu time:       0 days  0 hours 33 minutes 59.5 seconds.
 Elapsed time:       0 days  0 hours  3 minutes 43.3 seconds.
 File lengths (MBytes):  RWF=     10 Int=      0 D2E=      0 Chk=      4 Scr=      1
 Normal termination of Gaussian 16 at Tue Jun 16 23:39:40 2020.
