 Entering Gaussian System, Link 0=g16
 Input=2H2_argon_input.com
 Output=2H2_argon_input.log
 Initial command:
 /export/local/g16/l1.exe "/var/tmp/Gau-16970.inp" -scrdir="/var/tmp/"
 Entering Link 1 = /export/local/g16/l1.exe PID=     16971.
  
 Copyright (c) 1988,1990,1992,1993,1995,1998,2003,2009,2016,
            Gaussian, Inc.  All Rights Reserved.
  
 This is part of the Gaussian(R) 16 program.  It is based on
 the Gaussian(R) 09 system (copyright 2009, Gaussian, Inc.),
 the Gaussian(R) 03 system (copyright 2003, Gaussian, Inc.),
 the Gaussian(R) 98 system (copyright 1998, Gaussian, Inc.),
 the Gaussian(R) 94 system (copyright 1995, Gaussian, Inc.),
 the Gaussian 92(TM) system (copyright 1992, Gaussian, Inc.),
 the Gaussian 90(TM) system (copyright 1990, Gaussian, Inc.),
 the Gaussian 88(TM) system (copyright 1988, Gaussian, Inc.),
 the Gaussian 86(TM) system (copyright 1986, Carnegie Mellon
 University), and the Gaussian 82(TM) system (copyright 1983,
 Carnegie Mellon University). Gaussian is a federally registered
 trademark of Gaussian, Inc.
  
 This software contains proprietary and confidential information,
 including trade secrets, belonging to Gaussian, Inc.
  
 This software is provided under written license and may be
 used, copied, transmitted, or stored only in accord with that
 written license.
  
 The following legend is applicable only to US Government
 contracts under FAR:
  
                    RESTRICTED RIGHTS LEGEND
  
 Use, reproduction and disclosure by the US Government is
 subject to restrictions as set forth in subparagraphs (a)
 and (c) of the Commercial Computer Software - Restricted
 Rights clause in FAR 52.227-19.
  
 Gaussian, Inc.
 340 Quinnipiac St., Bldg. 40, Wallingford CT 06492
  
  
 ---------------------------------------------------------------
 Warning -- This program may not be used in any manner that
 competes with the business of Gaussian, Inc. or will provide
 assistance to any competitor of Gaussian, Inc.  The licensee
 of this program is prohibited from giving any competitor of
 Gaussian, Inc. access to this program.  By using this program,
 the user acknowledges that Gaussian, Inc. is engaged in the
 business of creating and licensing software in the field of
 computational chemistry and represents and warrants to the
 licensee that it is not a competitor of Gaussian, Inc. and that
 it will not use this program in any manner prohibited above.
 ---------------------------------------------------------------
  

 Cite this work as:
 Gaussian 16, Revision A.03,
 M. J. Frisch, G. W. Trucks, H. B. Schlegel, G. E. Scuseria, 
 M. A. Robb, J. R. Cheeseman, G. Scalmani, V. Barone, 
 G. A. Petersson, H. Nakatsuji, X. Li, M. Caricato, A. V. Marenich, 
 J. Bloino, B. G. Janesko, R. Gomperts, B. Mennucci, H. P. Hratchian, 
 J. V. Ortiz, A. F. Izmaylov, J. L. Sonnenberg, D. Williams-Young, 
 F. Ding, F. Lipparini, F. Egidi, J. Goings, B. Peng, A. Petrone, 
 T. Henderson, D. Ranasinghe, V. G. Zakrzewski, J. Gao, N. Rega, 
 G. Zheng, W. Liang, M. Hada, M. Ehara, K. Toyota, R. Fukuda, 
 J. Hasegawa, M. Ishida, T. Nakajima, Y. Honda, O. Kitao, H. Nakai, 
 T. Vreven, K. Throssell, J. A. Montgomery, Jr., J. E. Peralta, 
 F. Ogliaro, M. J. Bearpark, J. J. Heyd, E. N. Brothers, K. N. Kudin, 
 V. N. Staroverov, T. A. Keith, R. Kobayashi, J. Normand, 
 K. Raghavachari, A. P. Rendell, J. C. Burant, S. S. Iyengar, 
 J. Tomasi, M. Cossi, J. M. Millam, M. Klene, C. Adamo, R. Cammi, 
 J. W. Ochterski, R. L. Martin, K. Morokuma, O. Farkas, 
 J. B. Foresman, and D. J. Fox, Gaussian, Inc., Wallingford CT, 2016.
 
 ******************************************
 Gaussian 16:  ES64L-G16RevA.03 25-Dec-2016
                16-Jun-2020 
 ******************************************
 %chk=2H2_argon_input.chk
 %nprocshared=12
 Will use up to   12 processors via shared memory.
 ---------------
 # scan hf/6-31g
 ---------------
 1/38=1,60=1,172=1/1,8;
 2/12=2,17=6,18=5,29=3,40=1/2;
 3/5=1,6=6,11=9,25=1,30=1/1,2,3;
 4//1;
 5/5=2,38=5/2;
 6/7=2,8=2,9=2,10=2,18=1,28=1/1;
 1/60=1/8(1);
 99/9=1/99;
 2/29=3/2;
 3/5=1,6=6,11=9,25=1,30=1/1,2,3;
 4/5=5,16=3,69=1/1;
 5/5=2,38=5/2;
 1/60=1/8(-4);
 99/9=1/99;
 ----------------
 2H2O_argon_input
 ----------------
 Symbolic Z-matrix:
 Charge =  0 Multiplicity = 1
 O
 H                    1    B1
 H                    1    B2       2    A1
 O                    1    B3       2    A2       3    D1       0
 H                    4    B4       1    A3       2    D2       0
 H                    4    B5       1    A4       2    D3       0
 Ar                   1    B6       2    A5       3    D4       0
 X                    7    B7       1    A6       2    D5       0
 X                    7    B8       1    A7       2    D6       0
       Variables:
  B1                    0.97                     
  B2                    0.97                     
  A1                  109.471                    
  B3                    4.6                      
  A2                  125.2645                   
  D1                  180.                       
  B4                    0.97                     
  A3                  125.2645                   
  D2                    0.                       
  B5                    0.97                     
  A4                  125.2645                   
  D3                  180.                       
  B6                    2.3    Scan 18   -0.03889
  A5                  125.2645 Scan 18  -10.     
  D4                  180.                       
  B7                    0.36498                  
  A6                   90.                       
  D5                    0.                       
  B8                    0.36498                  
  A7                   90.                       
  D6                  180.                       
 
     1 tetrahedral angles replaced.
    1 tetrahedral angles replaced.
 Scan the potential surface.
 Variable   Value     No. Steps Step-Size
 -------- ----------- --------- ---------
    13       2.300000      18     -0.0389
    14     125.264500      18    -10.0000
 A total of    361 points will be computed.
 ---------------------------------------------------------------------------------------------------
                            Z-MATRIX (ANGSTROMS AND DEGREES)
   CD    Cent   Atom    N1       Length/X        N2       Alpha/Y        N3        Beta/Z          J
 ---------------------------------------------------------------------------------------------------
      1      1  O 
      2      2  H        1   0.970000(     1)
      3      3  H        1   0.970000(     2)      2  109.471(     9)
      4      4  O        1   4.600000(     3)      2  125.265(    10)      3  180.000(    16)      0
      5      5  H        4   0.970000(     4)      1  125.265(    11)      2    0.000(    17)      0
      6      6  H        4   0.970000(     5)      1  125.265(    12)      2  180.000(    18)      0
      7      7  Ar       1   2.300000(     6)      2  125.265(    13)      3  180.000(    19)      0
      8         X        7   0.364980(     7)      1   90.000(    14)      2    0.000(    20)      0
      9         X        7   0.364980(     8)      1   90.000(    15)      2  180.000(    21)      0
 ---------------------------------------------------------------------------------------------------
                         Z-Matrix orientation:                         
 ---------------------------------------------------------------------
 Center     Atomic      Atomic             Coordinates (Angstroms)
 Number     Number       Type             X           Y           Z
 ---------------------------------------------------------------------
      1          8           0        0.000000    0.000000    0.000000
      2          1           0        0.000000    0.000000    0.970000
      3          1           0        0.914525    0.000000   -0.323333
      4          8           0       -3.755879   -0.000000   -2.655818
      5          1           0       -4.670405   -0.000000   -2.332489
      6          1           0       -3.755879   -0.000000   -3.625818
      7         18           0       -1.877940   -0.000000   -1.327909
      8         -1           0       -2.088661   -0.000000   -1.029905
      9         -1           0       -1.667218   -0.000000   -1.625914
 ---------------------------------------------------------------------
                    Distance matrix (angstroms):
                    1          2          3          4          5
     1  O    0.000000
     2  H    0.970000   0.000000
     3  H    0.970000   1.584003   0.000000
     4  O    4.600000   5.220459   5.220456   0.000000
     5  H    5.220459   5.720063   5.935330   0.970000   0.000000
     6  H    5.220459   5.935333   5.720060   0.970000   1.584001
     7  Ar   2.300000   2.967666   2.967664   2.300000   2.967666
     8  X    2.328779   2.891734   3.085186   2.328779   2.891734
     9  X    2.328779   3.085188   2.891731   2.328779   3.085188
                    6          7          8          9
     6  H    0.000000
     7  Ar   2.967666   0.000000
     8  X    3.085188   0.364980   0.000000
     9  X    2.891734   0.364980   0.729960   0.000000
 Stoichiometry    ArH4O2
 Framework group  CS[SG(ArH4O2)]
 Deg. of freedom    11
 Full point group                 CS      NOp   2
 Largest Abelian subgroup         CS      NOp   2
 Largest concise Abelian subgroup C1      NOp   1
                         Standard orientation:                         
 ---------------------------------------------------------------------
 Center     Atomic      Atomic             Coordinates (Angstroms)
 Number     Number       Type             X           Y           Z
 ---------------------------------------------------------------------
      1          8           0        0.000000   -2.300000    0.000000
      2          1           0        0.792001   -2.860031    0.000000
      3          1           0       -0.792003   -2.860028    0.000000
      4          8           0        0.000000    2.300000   -0.000000
      5          1           0        0.792001    2.860031   -0.000000
      6          1           0       -0.792001    2.860031   -0.000000
      7         18           0        0.000000   -0.000000    0.000000
 ---------------------------------------------------------------------
 Rotational constants (GHZ):         199.8574983           2.4993853           2.4685144
 Standard basis: 6-31G (6D, 7F)
 There are    32 symmetry adapted cartesian basis functions of A'  symmetry.
 There are     7 symmetry adapted cartesian basis functions of A"  symmetry.
 There are    32 symmetry adapted basis functions of A'  symmetry.
 There are     7 symmetry adapted basis functions of A"  symmetry.
    39 basis functions,   106 primitive gaussians,    39 cartesian basis functions
    19 alpha electrons       19 beta electrons
       nuclear repulsion energy       108.1958816037 Hartrees.
 NAtoms=    7 NActive=    7 NUniq=    7 SFac= 1.00D+00 NAtFMM=   60 NAOKFM=F Big=F
 Integral buffers will be    131072 words long.
 Raffenetti 1 integral format.
 Two-electron integral symmetry is turned on.
 One-electron integrals computed using PRISM.
 NBasis=    39 RedAO= T EigKep=  7.05D-02  NBF=    32     7
 NBsUse=    39 1.00D-06 EigRej= -1.00D+00 NBFU=    32     7
 ExpMin= 1.61D-01 ExpMax= 2.83D+04 ExpMxC= 4.26D+03 IAcc=3 IRadAn=         5 AccDes= 0.00D+00
 Harris functional with IExCor=  205 and IRadAn=       5 diagonalized for initial guess.
 HarFok:  IExCor=  205 AccDes= 0.00D+00 IRadAn=         5 IDoV= 1 UseB2=F ITyADJ=14
 ICtDFT=  3500011 ScaDFX=  1.000000  1.000000  1.000000  1.000000
 FoFCou: FMM=F IPFlag=           0 FMFlag=      100000 FMFlg1=           0
         NFxFlg=           0 DoJE=T BraDBF=F KetDBF=T FulRan=T
         wScrn=  0.000000 ICntrl=       500 IOpCl=  0 I1Cent=   200000004 NGrid=           0
         NMat0=    1 NMatS0=      1 NMatT0=    0 NMatD0=    1 NMtDS0=    0 NMtDT0=    0
 Petite list used in FoFCou.
 Initial guess orbital symmetries:
       Occupied  (A') (A') (A') (A') (A') (A') (A") (A') (A') (A')
                 (A') (A') (A') (A') (A") (A") (A') (A") (A')
       Virtual   (A') (A') (A') (A') (A') (A') (A") (A') (A") (A')
                 (A") (A') (A') (A') (A') (A') (A') (A') (A') (A')
 The electronic state of the initial guess is 1-A'.
 Keep R1 ints in memory in symmetry-blocked form, NReq=2735924.
 Requested convergence on RMS density matrix=1.00D-08 within 128 cycles.
 Requested convergence on MAX density matrix=1.00D-06.
 Requested convergence on             energy=1.00D-06.
 No special actions if energy rises.
 SCF Done:  E(RHF) =  -678.674112315     A.U. after   10 cycles
            NFock= 10  Conv=0.97D-08     -V/T= 1.9993

 **********************************************************************

            Population analysis using the SCF density.

 **********************************************************************

 Orbital symmetries:
       Occupied  (A') (A') (A') (A') (A') (A") (A') (A') (A') (A')
                 (A') (A') (A') (A') (A") (A') (A") (A") (A')
       Virtual   (A') (A') (A') (A') (A') (A') (A") (A') (A') (A')
                 (A') (A') (A") (A") (A') (A') (A') (A') (A') (A')
 The electronic state is 1-A'.
 Alpha  occ. eigenvalues -- -118.48747 -20.54038 -20.54037 -12.21350  -9.46392
 Alpha  occ. eigenvalues --   -9.46373  -9.46304  -1.33674  -1.33498  -1.18171
 Alpha  occ. eigenvalues --   -0.70071  -0.69990  -0.61494  -0.54140  -0.51682
 Alpha  occ. eigenvalues --   -0.50047  -0.48793  -0.46903  -0.39832
 Alpha virt. eigenvalues --    0.21357   0.22100   0.30627   0.30641   0.77550
 Alpha virt. eigenvalues --    0.77626   0.80477   1.00170   1.08910   1.16017
 Alpha virt. eigenvalues --    1.16253   1.16553   1.17391   1.21680   1.34488
 Alpha virt. eigenvalues --    1.38660   1.43224   1.48766   1.70156   1.81995
          Condensed to atoms (all electrons):
               1          2          3          4          5          6
     1  O    8.444047   0.246742   0.246742  -0.000017   0.000002   0.000002
     2  H    0.246742   0.372934  -0.023350   0.000002  -0.000000  -0.000000
     3  H    0.246742  -0.023350   0.372934   0.000002  -0.000000  -0.000000
     4  O   -0.000017   0.000002   0.000002   8.444046   0.246742   0.246742
     5  H    0.000002  -0.000000  -0.000000   0.246742   0.372934  -0.023351
     6  H    0.000002  -0.000000  -0.000000   0.246742  -0.023351   0.372934
     7  Ar  -0.140112   0.007673   0.007673  -0.140112   0.007673   0.007673
               7
     1  O   -0.140112
     2  H    0.007673
     3  H    0.007673
     4  O   -0.140112
     5  H    0.007673
     6  H    0.007673
     7  Ar  18.238714
 Mulliken charges:
               1
     1  O   -0.797407
     2  H    0.395999
     3  H    0.395999
     4  O   -0.797406
     5  H    0.395999
     6  H    0.395999
     7  Ar   0.010816
 Sum of Mulliken charges =  -0.00000
 Mulliken charges with hydrogens summed into heavy atoms:
               1
     1  O   -0.005408
     4  O   -0.005408
     7  Ar   0.010816
 Electronic spatial extent (au):  <R**2>=            463.2830
 Charge=             -0.0000 electrons
 Dipole moment (field-independent basis, Debye):
    X=             -0.0000    Y=              0.0000    Z=              0.0000  Tot=              0.0000
 Quadrupole moment (field-independent basis, Debye-Ang):
   XX=            -19.7276   YY=             -1.4755   ZZ=            -26.1772
   XY=              0.0000   XZ=             -0.0000   YZ=             -0.0000
 Traceless Quadrupole moment (field-independent basis, Debye-Ang):
   XX=             -3.9342   YY=             14.3180   ZZ=            -10.3838
   XY=              0.0000   XZ=             -0.0000   YZ=             -0.0000
 Octapole moment (field-independent basis, Debye-Ang**2):
  XXX=             -0.0000  YYY=              0.0001  ZZZ=              0.0000  XYY=             -0.0000
  XXY=             -0.0000  XXZ=              0.0000  XZZ=             -0.0000  YZZ=              0.0000
  YYZ=             -0.0000  XYZ=              0.0000
 Hexadecapole moment (field-independent basis, Debye-Ang**3):
 XXXX=            -22.1462 YYYY=           -173.6151 ZZZZ=            -21.1474 XXXY=              0.0000
 XXXZ=              0.0000 YYYX=             -0.0000 YYYZ=             -0.0000 ZZZX=              0.0000
 ZZZY=              0.0000 XXYY=            -41.1626 XXZZ=             -7.7851 YYZZ=            -88.2206
 XXYZ=              0.0000 YYXZ=             -0.0000 ZZXY=             -0.0000
 N-N= 1.081958816037D+02 E-N=-1.834962708093D+03  KE= 6.791334330593D+02
 Symmetry A'   KE= 6.165503677459D+02
 Symmetry A"   KE= 6.258306531337D+01
 Variable Step   Value    
 -------- ---- -----------
    13       1    4.272879
    14       0    2.186278
 ---------------------------------------------------------------------------------------------------
                            Z-MATRIX (ANGSTROMS AND DEGREES)
   CD    Cent   Atom    N1       Length/X        N2       Alpha/Y        N3        Beta/Z          J
 ---------------------------------------------------------------------------------------------------
      1      1  O 
      2      2  H        1   0.970000(     1)
      3      3  H        1   0.970000(     2)      2  109.471(     9)
      4      4  O        1   4.600000(     3)      2  125.265(    10)      3  180.000(    16)      0
      5      5  H        4   0.970000(     4)      1  125.265(    11)      2    0.000(    17)      0
      6      6  H        4   0.970000(     5)      1  125.265(    12)      2  180.000(    18)      0
      7      7  Ar       1   2.261110(     6)      2  125.265(    13)      3  180.000(    19)      0
      8         X        7   0.364980(     7)      1   90.000(    14)      2    0.000(    20)      0
      9         X        7   0.364980(     8)      1   90.000(    15)      2  180.000(    21)      0
 ---------------------------------------------------------------------------------------------------
                         Z-Matrix orientation:                         
 ---------------------------------------------------------------------
 Center     Atomic      Atomic             Coordinates (Angstroms)
 Number     Number       Type             X           Y           Z
 ---------------------------------------------------------------------
      1          8           0        0.000000    0.000000    0.000000
      2          1           0        0.000000    0.000000    0.970000
      3          1           0        0.914525    0.000000   -0.323333
      4          8           0       -3.755879   -0.000000   -2.655818
      5          1           0       -4.670405   -0.000000   -2.332489
      6          1           0       -3.755879   -0.000000   -3.625818
      7         18           0       -1.846186   -0.000000   -1.305456
      8         -1           0       -2.056908   -0.000000   -1.007452
      9         -1           0       -1.635464   -0.000000   -1.603461
 ---------------------------------------------------------------------
                    Distance matrix (angstroms):
                    1          2          3          4          5
     1  O    0.000000
     2  H    0.970000   0.000000
     3  H    0.970000   1.584003   0.000000
     4  O    4.600000   5.220459   5.220456   0.000000
     5  H    5.220459   5.720063   5.935330   0.970000   0.000000
     6  H    5.220459   5.935333   5.720060   0.970000   1.584001
     7  Ar   2.261110   2.930205   2.930203   2.338890   3.005164
     8  X    2.290377   2.853276   3.049169   2.367196   2.930203
     9  X    2.290377   3.049171   2.853273   2.367196   3.121274
                    6          7          8          9
     6  H    0.000000
     7  Ar   3.005164   0.000000
     8  X    3.121274   0.364980   0.000000
     9  X    2.930203   0.364980   0.729960   0.000000
 Stoichiometry    ArH4O2
 Framework group  CS[SG(ArH4O2)]
 Deg. of freedom    11
 Full point group                 CS      NOp   2
 Largest Abelian subgroup         CS      NOp   2
 Largest concise Abelian subgroup C1      NOp   1
                         Standard orientation:                         
 ---------------------------------------------------------------------
 Center     Atomic      Atomic             Coordinates (Angstroms)
 Number     Number       Type             X           Y           Z
 ---------------------------------------------------------------------
      1          8           0        0.000000   -2.281579   -0.000000
      2          1           0        0.792001   -2.841610   -0.000000
      3          1           0       -0.792003   -2.841607   -0.000000
      4          8           0        0.000000    2.318421    0.000000
      5          1           0        0.792001    2.878453    0.000000
      6          1           0       -0.792001    2.878453    0.000000
      7         18           0        0.000000   -0.020469   -0.000000
 ---------------------------------------------------------------------
 Rotational constants (GHZ):         199.8574983           2.4990311           2.4681690
 Standard basis: 6-31G (6D, 7F)
 There are    32 symmetry adapted cartesian basis functions of A'  symmetry.
 There are     7 symmetry adapted cartesian basis functions of A"  symmetry.
 There are    32 symmetry adapted basis functions of A'  symmetry.
 There are     7 symmetry adapted basis functions of A"  symmetry.
    39 basis functions,   106 primitive gaussians,    39 cartesian basis functions
    19 alpha electrons       19 beta electrons
       nuclear repulsion energy       108.2168011812 Hartrees.
 NAtoms=    7 NActive=    7 NUniq=    7 SFac= 1.00D+00 NAtFMM=   60 NAOKFM=F Big=F
 Integral buffers will be    131072 words long.
 Raffenetti 1 integral format.
 Two-electron integral symmetry is turned on.
 One-electron integrals computed using PRISM.
 NBasis=    39 RedAO= T EigKep=  7.04D-02  NBF=    32     7
 NBsUse=    39 1.00D-06 EigRej= -1.00D+00 NBFU=    32     7
 Initial guess from the checkpoint file:  "2H2_argon_input.chk"
 B after Tr=     0.000000   -0.000000   -0.000000
         Rot=    1.000000   -0.000000    0.000000    0.000000 Ang=   0.00 deg.
 Initial guess orbital symmetries:
       Occupied  (A') (A') (A') (A') (A') (A") (A') (A') (A') (A')
                 (A') (A') (A') (A') (A") (A') (A") (A") (A')
       Virtual   (A') (A') (A') (A') (A') (A') (A") (A') (A') (A')
                 (A') (A') (A") (A") (A') (A') (A') (A') (A') (A')
 ExpMin= 1.61D-01 ExpMax= 2.83D+04 ExpMxC= 4.26D+03 IAcc=2 IRadAn=         4 AccDes= 0.00D+00
 Harris functional with IExCor=  205 and IRadAn=       4 diagonalized for initial guess.
 HarFok:  IExCor=  205 AccDes= 0.00D+00 IRadAn=         4 IDoV= 1 UseB2=F ITyADJ=14
 ICtDFT=  3500011 ScaDFX=  1.000000  1.000000  1.000000  1.000000
 FoFCou: FMM=F IPFlag=           0 FMFlag=      100000 FMFlg1=           0
         NFxFlg=           0 DoJE=T BraDBF=F KetDBF=T FulRan=T
         wScrn=  0.000000 ICntrl=       500 IOpCl=  0 I1Cent=   200000004 NGrid=           0
         NMat0=    1 NMatS0=      1 NMatT0=    0 NMatD0=    1 NMtDS0=    0 NMtDT0=    0
 Petite list used in FoFCou.
 Keep R1 ints in memory in symmetry-blocked form, NReq=2735957.
 Requested convergence on RMS density matrix=1.00D-08 within 128 cycles.
 Requested convergence on MAX density matrix=1.00D-06.
 Requested convergence on             energy=1.00D-06.
 No special actions if energy rises.
 SCF Done:  E(RHF) =  -678.673497723     A.U. after    9 cycles
            NFock=  9  Conv=0.15D-08     -V/T= 1.9993
 Variable Step   Value    
 -------- ---- -----------
    13       2    4.199387
    14       0    2.186278
 ---------------------------------------------------------------------------------------------------
                            Z-MATRIX (ANGSTROMS AND DEGREES)
   CD    Cent   Atom    N1       Length/X        N2       Alpha/Y        N3        Beta/Z          J
 ---------------------------------------------------------------------------------------------------
      1      1  O 
      2      2  H        1   0.970000(     1)
      3      3  H        1   0.970000(     2)      2  109.471(     9)
      4      4  O        1   4.600000(     3)      2  125.265(    10)      3  180.000(    16)      0
      5      5  H        4   0.970000(     4)      1  125.265(    11)      2    0.000(    17)      0
      6      6  H        4   0.970000(     5)      1  125.265(    12)      2  180.000(    18)      0
      7      7  Ar       1   2.222220(     6)      2  125.265(    13)      3  180.000(    19)      0
      8         X        7   0.364980(     7)      1   90.000(    14)      2    0.000(    20)      0
      9         X        7   0.364980(     8)      1   90.000(    15)      2  180.000(    21)      0
 ---------------------------------------------------------------------------------------------------
                         Z-Matrix orientation:                         
 ---------------------------------------------------------------------
 Center     Atomic      Atomic             Coordinates (Angstroms)
 Number     Number       Type             X           Y           Z
 ---------------------------------------------------------------------
      1          8           0        0.000000    0.000000    0.000000
      2          1           0        0.000000    0.000000    0.970000
      3          1           0        0.914525    0.000000   -0.323333
      4          8           0       -3.755879   -0.000000   -2.655818
      5          1           0       -4.670405   -0.000000   -2.332489
      6          1           0       -3.755879   -0.000000   -3.625818
      7         18           0       -1.814433   -0.000000   -1.283003
      8         -1           0       -2.025154   -0.000000   -0.984998
      9         -1           0       -1.603711   -0.000000   -1.581007
 ---------------------------------------------------------------------
                    Distance matrix (angstroms):
                    1          2          3          4          5
     1  O    0.000000
     2  H    0.970000   0.000000
     3  H    0.970000   1.584003   0.000000
     4  O    4.600000   5.220459   5.220456   0.000000
     5  H    5.220459   5.720063   5.935330   0.970000   0.000000
     6  H    5.220459   5.935333   5.720060   0.970000   1.584001
     7  Ar   2.222220   2.892782   2.892780   2.377780   3.042696
     8  X    2.251993   2.814830   3.013223   2.405628   2.968684
     9  X    2.251993   3.013225   2.814827   2.405628   3.157426
                    6          7          8          9
     6  H    0.000000
     7  Ar   3.042696   0.000000
     8  X    3.157426   0.364980   0.000000
     9  X    2.968684   0.364980   0.729960   0.000000
 Stoichiometry    ArH4O2
 Framework group  CS[SG(ArH4O2)]
 Deg. of freedom    11
 Full point group                 CS      NOp   2
 Largest Abelian subgroup         CS      NOp   2
 Largest concise Abelian subgroup C1      NOp   1
                         Standard orientation:                         
 ---------------------------------------------------------------------
 Center     Atomic      Atomic             Coordinates (Angstroms)
 Number     Number       Type             X           Y           Z
 ---------------------------------------------------------------------
      1          8           0        0.000000   -2.263157   -0.000000
      2          1           0        0.792001   -2.823188   -0.000000
      3          1           0       -0.792003   -2.823185   -0.000000
      4          8           0        0.000000    2.336843    0.000000
      5          1           0        0.792001    2.896874    0.000000
      6          1           0       -0.792001    2.896874    0.000000
      7         18           0        0.000000   -0.040937   -0.000000
 ---------------------------------------------------------------------
 Rotational constants (GHZ):         199.8574983           2.4979694           2.4671333
 Standard basis: 6-31G (6D, 7F)
 There are    32 symmetry adapted cartesian basis functions of A'  symmetry.
 There are     7 symmetry adapted cartesian basis functions of A"  symmetry.
 There are    32 symmetry adapted basis functions of A'  symmetry.
 There are     7 symmetry adapted basis functions of A"  symmetry.
    39 basis functions,   106 primitive gaussians,    39 cartesian basis functions
    19 alpha electrons       19 beta electrons
       nuclear repulsion energy       108.2796279234 Hartrees.
 NAtoms=    7 NActive=    7 NUniq=    7 SFac= 1.00D+00 NAtFMM=   60 NAOKFM=F Big=F
 Integral buffers will be    131072 words long.
 Raffenetti 1 integral format.
 Two-electron integral symmetry is turned on.
 One-electron integrals computed using PRISM.
 NBasis=    39 RedAO= T EigKep=  7.04D-02  NBF=    32     7
 NBsUse=    39 1.00D-06 EigRej= -1.00D+00 NBFU=    32     7
 Initial guess from the checkpoint file:  "2H2_argon_input.chk"
 B after Tr=    -0.000000    0.000000    0.000000
         Rot=    1.000000   -0.000000    0.000000    0.000000 Ang=   0.00 deg.
 Initial guess orbital symmetries:
       Occupied  (A') (A') (A') (A') (A') (A") (A') (A') (A') (A')
                 (A') (A') (A') (A') (A") (A') (A") (A") (A')
       Virtual   (A') (A') (A') (A') (A') (A') (A") (A') (A') (A')
                 (A') (A') (A") (A") (A') (A') (A') (A') (A') (A')
 ExpMin= 1.61D-01 ExpMax= 2.83D+04 ExpMxC= 4.26D+03 IAcc=2 IRadAn=         4 AccDes= 0.00D+00
 Harris functional with IExCor=  205 and IRadAn=       4 diagonalized for initial guess.
 HarFok:  IExCor=  205 AccDes= 0.00D+00 IRadAn=         4 IDoV= 1 UseB2=F ITyADJ=14
 ICtDFT=  3500011 ScaDFX=  1.000000  1.000000  1.000000  1.000000
 FoFCou: FMM=F IPFlag=           0 FMFlag=      100000 FMFlg1=           0
         NFxFlg=           0 DoJE=T BraDBF=F KetDBF=T FulRan=T
         wScrn=  0.000000 ICntrl=       500 IOpCl=  0 I1Cent=   200000004 NGrid=           0
         NMat0=    1 NMatS0=      1 NMatT0=    0 NMatD0=    1 NMtDS0=    0 NMtDT0=    0
 Petite list used in FoFCou.
 Keep R1 ints in memory in symmetry-blocked form, NReq=2735990.
 Requested convergence on RMS density matrix=1.00D-08 within 128 cycles.
 Requested convergence on MAX density matrix=1.00D-06.
 Requested convergence on             energy=1.00D-06.
 No special actions if energy rises.
 SCF Done:  E(RHF) =  -678.671642911     A.U. after    9 cycles
            NFock=  9  Conv=0.30D-08     -V/T= 1.9993
 Variable Step   Value    
 -------- ---- -----------
    13       3    4.125896
    14       0    2.186278
 ---------------------------------------------------------------------------------------------------
                            Z-MATRIX (ANGSTROMS AND DEGREES)
   CD    Cent   Atom    N1       Length/X        N2       Alpha/Y        N3        Beta/Z          J
 ---------------------------------------------------------------------------------------------------
      1      1  O 
      2      2  H        1   0.970000(     1)
      3      3  H        1   0.970000(     2)      2  109.471(     9)
      4      4  O        1   4.600000(     3)      2  125.265(    10)      3  180.000(    16)      0
      5      5  H        4   0.970000(     4)      1  125.265(    11)      2    0.000(    17)      0
      6      6  H        4   0.970000(     5)      1  125.265(    12)      2  180.000(    18)      0
      7      7  Ar       1   2.183330(     6)      2  125.265(    13)      3  180.000(    19)      0
      8         X        7   0.364980(     7)      1   90.000(    14)      2    0.000(    20)      0
      9         X        7   0.364980(     8)      1   90.000(    15)      2  180.000(    21)      0
 ---------------------------------------------------------------------------------------------------
                         Z-Matrix orientation:                         
 ---------------------------------------------------------------------
 Center     Atomic      Atomic             Coordinates (Angstroms)
 Number     Number       Type             X           Y           Z
 ---------------------------------------------------------------------
      1          8           0        0.000000    0.000000    0.000000
      2          1           0        0.000000    0.000000    0.970000
      3          1           0        0.914525    0.000000   -0.323333
      4          8           0       -3.755879   -0.000000   -2.655818
      5          1           0       -4.670405   -0.000000   -2.332489
      6          1           0       -3.755879   -0.000000   -3.625818
      7         18           0       -1.782679   -0.000000   -1.260550
      8         -1           0       -1.993401   -0.000000   -0.962545
      9         -1           0       -1.571957   -0.000000   -1.558554
 ---------------------------------------------------------------------
                    Distance matrix (angstroms):
                    1          2          3          4          5
     1  O    0.000000
     2  H    0.970000   0.000000
     3  H    0.970000   1.584003   0.000000
     4  O    4.600000   5.220459   5.220456   0.000000
     5  H    5.220459   5.720063   5.935330   0.970000   0.000000
     6  H    5.220459   5.935333   5.720060   0.970000   1.584001
     7  Ar   2.183330   2.855398   2.855395   2.416670   3.080262
     8  X    2.213626   2.776397   2.977352   2.444075   3.007174
     9  X    2.213626   2.977354   2.776394   2.444075   3.193643
                    6          7          8          9
     6  H    0.000000
     7  Ar   3.080262   0.000000
     8  X    3.193643   0.364980   0.000000
     9  X    3.007174   0.364980   0.729960   0.000000
 Stoichiometry    ArH4O2
 Framework group  CS[SG(ArH4O2)]
 Deg. of freedom    11
 Full point group                 CS      NOp   2
 Largest Abelian subgroup         CS      NOp   2
 Largest concise Abelian subgroup C1      NOp   1
                         Standard orientation:                         
 ---------------------------------------------------------------------
 Center     Atomic      Atomic             Coordinates (Angstroms)
 Number     Number       Type             X           Y           Z
 ---------------------------------------------------------------------
      1          8           0        0.000000   -2.244735    0.000000
      2          1           0        0.792001   -2.804767    0.000000
      3          1           0       -0.792003   -2.804764    0.000000
      4          8           0        0.000000    2.355265    0.000000
      5          1           0        0.792001    2.915296    0.000000
      6          1           0       -0.792001    2.915296    0.000000
      7         18           0        0.000000   -0.061405    0.000000
 ---------------------------------------------------------------------
 Rotational constants (GHZ):         199.8574983           2.4962018           2.4654090
 Standard basis: 6-31G (6D, 7F)
 There are    32 symmetry adapted cartesian basis functions of A'  symmetry.
 There are     7 symmetry adapted cartesian basis functions of A"  symmetry.
 There are    32 symmetry adapted basis functions of A'  symmetry.
 There are     7 symmetry adapted basis functions of A"  symmetry.
    39 basis functions,   106 primitive gaussians,    39 cartesian basis functions
    19 alpha electrons       19 beta electrons
       nuclear repulsion energy       108.3845667495 Hartrees.
 NAtoms=    7 NActive=    7 NUniq=    7 SFac= 1.00D+00 NAtFMM=   60 NAOKFM=F Big=F
 Integral buffers will be    131072 words long.
 Raffenetti 1 integral format.
 Two-electron integral symmetry is turned on.
 One-electron integrals computed using PRISM.
 NBasis=    39 RedAO= T EigKep=  7.03D-02  NBF=    32     7
 NBsUse=    39 1.00D-06 EigRej= -1.00D+00 NBFU=    32     7
 Initial guess from the checkpoint file:  "2H2_argon_input.chk"
 B after Tr=    -0.000000    0.000000   -0.000000
         Rot=    1.000000   -0.000000    0.000000    0.000000 Ang=   0.00 deg.
 Initial guess orbital symmetries:
       Occupied  (A') (A') (A') (A') (A') (A") (A') (A') (A') (A')
                 (A') (A') (A') (A') (A") (A') (A") (A") (A')
       Virtual   (A') (A') (A') (A') (A') (A') (A") (A') (A') (A')
                 (A') (A') (A") (A") (A') (A') (A') (A') (A') (A')
 ExpMin= 1.61D-01 ExpMax= 2.83D+04 ExpMxC= 4.26D+03 IAcc=2 IRadAn=         4 AccDes= 0.00D+00
 Harris functional with IExCor=  205 and IRadAn=       4 diagonalized for initial guess.
 HarFok:  IExCor=  205 AccDes= 0.00D+00 IRadAn=         4 IDoV= 1 UseB2=F ITyADJ=14
 ICtDFT=  3500011 ScaDFX=  1.000000  1.000000  1.000000  1.000000
 FoFCou: FMM=F IPFlag=           0 FMFlag=      100000 FMFlg1=           0
         NFxFlg=           0 DoJE=T BraDBF=F KetDBF=T FulRan=T
         wScrn=  0.000000 ICntrl=       500 IOpCl=  0 I1Cent=   200000004 NGrid=           0
         NMat0=    1 NMatS0=      1 NMatT0=    0 NMatD0=    1 NMtDS0=    0 NMtDT0=    0
 Petite list used in FoFCou.
 Keep R1 ints in memory in symmetry-blocked form, NReq=2736017.
 Requested convergence on RMS density matrix=1.00D-08 within 128 cycles.
 Requested convergence on MAX density matrix=1.00D-06.
 Requested convergence on             energy=1.00D-06.
 No special actions if energy rises.
 SCF Done:  E(RHF) =  -678.668514620     A.U. after    9 cycles
            NFock=  9  Conv=0.42D-08     -V/T= 1.9993
 Variable Step   Value    
 -------- ---- -----------
    13       4    4.052404
    14       0    2.186278
 ---------------------------------------------------------------------------------------------------
                            Z-MATRIX (ANGSTROMS AND DEGREES)
   CD    Cent   Atom    N1       Length/X        N2       Alpha/Y        N3        Beta/Z          J
 ---------------------------------------------------------------------------------------------------
      1      1  O 
      2      2  H        1   0.970000(     1)
      3      3  H        1   0.970000(     2)      2  109.471(     9)
      4      4  O        1   4.600000(     3)      2  125.265(    10)      3  180.000(    16)      0
      5      5  H        4   0.970000(     4)      1  125.265(    11)      2    0.000(    17)      0
      6      6  H        4   0.970000(     5)      1  125.265(    12)      2  180.000(    18)      0
      7      7  Ar       1   2.144440(     6)      2  125.265(    13)      3  180.000(    19)      0
      8         X        7   0.364980(     7)      1   90.000(    14)      2    0.000(    20)      0
      9         X        7   0.364980(     8)      1   90.000(    15)      2  180.000(    21)      0
 ---------------------------------------------------------------------------------------------------
                         Z-Matrix orientation:                         
 ---------------------------------------------------------------------
 Center     Atomic      Atomic             Coordinates (Angstroms)
 Number     Number       Type             X           Y           Z
 ---------------------------------------------------------------------
      1          8           0        0.000000    0.000000    0.000000
      2          1           0        0.000000    0.000000    0.970000
      3          1           0        0.914525    0.000000   -0.323333
      4          8           0       -3.755879   -0.000000   -2.655818
      5          1           0       -4.670405   -0.000000   -2.332489
      6          1           0       -3.755879   -0.000000   -3.625818
      7         18           0       -1.750926   -0.000000   -1.238096
      8         -1           0       -1.961647   -0.000000   -0.940092
      9         -1           0       -1.540204   -0.000000   -1.536101
 ---------------------------------------------------------------------
                    Distance matrix (angstroms):
                    1          2          3          4          5
     1  O    0.000000
     2  H    0.970000   0.000000
     3  H    0.970000   1.584003   0.000000
     4  O    4.600000   5.220459   5.220456   0.000000
     5  H    5.220459   5.720063   5.935330   0.970000   0.000000
     6  H    5.220459   5.935333   5.720060   0.970000   1.584001
     7  Ar   2.144440   2.818054   2.818052   2.455560   3.117861
     8  X    2.175278   2.737976   2.941557   2.482536   3.045675
     9  X    2.175278   2.941559   2.737973   2.482536   3.229922
                    6          7          8          9
     6  H    0.000000
     7  Ar   3.117861   0.000000
     8  X    3.229922   0.364980   0.000000
     9  X    3.045675   0.364980   0.729960   0.000000
 Stoichiometry    ArH4O2
 Framework group  CS[SG(ArH4O2)]
 Deg. of freedom    11
 Full point group                 CS      NOp   2
 Largest Abelian subgroup         CS      NOp   2
 Largest concise Abelian subgroup C1      NOp   1
                         Standard orientation:                         
 ---------------------------------------------------------------------
 Center     Atomic      Atomic             Coordinates (Angstroms)
 Number     Number       Type             X           Y           Z
 ---------------------------------------------------------------------
      1          8           0        0.000000   -2.226314   -0.000000
      2          1           0        0.792001   -2.786345   -0.000000
      3          1           0       -0.792003   -2.786342   -0.000000
      4          8           0        0.000000    2.373686    0.000000
      5          1           0        0.792001    2.933718    0.000000
      6          1           0       -0.792001    2.933718    0.000000
      7         18           0        0.000000   -0.081874   -0.000000
 ---------------------------------------------------------------------
 Rotational constants (GHZ):         199.8574983           2.4937313           2.4629991
 Standard basis: 6-31G (6D, 7F)
 There are    32 symmetry adapted cartesian basis functions of A'  symmetry.
 There are     7 symmetry adapted cartesian basis functions of A"  symmetry.
 There are    32 symmetry adapted basis functions of A'  symmetry.
 There are     7 symmetry adapted basis functions of A"  symmetry.
    39 basis functions,   106 primitive gaussians,    39 cartesian basis functions
    19 alpha electrons       19 beta electrons
       nuclear repulsion energy       108.5319610945 Hartrees.
 NAtoms=    7 NActive=    7 NUniq=    7 SFac= 1.00D+00 NAtFMM=   60 NAOKFM=F Big=F
 Integral buffers will be    131072 words long.
 Raffenetti 1 integral format.
 Two-electron integral symmetry is turned on.
 One-electron integrals computed using PRISM.
 NBasis=    39 RedAO= T EigKep=  7.01D-02  NBF=    32     7
 NBsUse=    39 1.00D-06 EigRej= -1.00D+00 NBFU=    32     7
 Initial guess from the checkpoint file:  "2H2_argon_input.chk"
 B after Tr=     0.000000   -0.000000    0.000000
         Rot=    1.000000    0.000000    0.000000    0.000000 Ang=   0.00 deg.
 Initial guess orbital symmetries:
       Occupied  (A') (A') (A') (A') (A') (A") (A') (A') (A') (A')
                 (A') (A') (A') (A') (A") (A') (A") (A") (A')
       Virtual   (A') (A') (A') (A') (A') (A') (A") (A') (A') (A')
                 (A') (A') (A") (A") (A') (A') (A') (A') (A') (A')
 ExpMin= 1.61D-01 ExpMax= 2.83D+04 ExpMxC= 4.26D+03 IAcc=2 IRadAn=         4 AccDes= 0.00D+00
 Harris functional with IExCor=  205 and IRadAn=       4 diagonalized for initial guess.
 HarFok:  IExCor=  205 AccDes= 0.00D+00 IRadAn=         4 IDoV= 1 UseB2=F ITyADJ=14
 ICtDFT=  3500011 ScaDFX=  1.000000  1.000000  1.000000  1.000000
 FoFCou: FMM=F IPFlag=           0 FMFlag=      100000 FMFlg1=           0
         NFxFlg=           0 DoJE=T BraDBF=F KetDBF=T FulRan=T
         wScrn=  0.000000 ICntrl=       500 IOpCl=  0 I1Cent=   200000004 NGrid=           0
         NMat0=    1 NMatS0=      1 NMatT0=    0 NMatD0=    1 NMtDS0=    0 NMtDT0=    0
 Petite list used in FoFCou.
 Keep R1 ints in memory in symmetry-blocked form, NReq=2736098.
 Requested convergence on RMS density matrix=1.00D-08 within 128 cycles.
 Requested convergence on MAX density matrix=1.00D-06.
 Requested convergence on             energy=1.00D-06.
 No special actions if energy rises.
 SCF Done:  E(RHF) =  -678.664056946     A.U. after    9 cycles
            NFock=  9  Conv=0.49D-08     -V/T= 1.9992
 Variable Step   Value    
 -------- ---- -----------
    13       5    3.978913
    14       0    2.186278
 ---------------------------------------------------------------------------------------------------
                            Z-MATRIX (ANGSTROMS AND DEGREES)
   CD    Cent   Atom    N1       Length/X        N2       Alpha/Y        N3        Beta/Z          J
 ---------------------------------------------------------------------------------------------------
      1      1  O 
      2      2  H        1   0.970000(     1)
      3      3  H        1   0.970000(     2)      2  109.471(     9)
      4      4  O        1   4.600000(     3)      2  125.265(    10)      3  180.000(    16)      0
      5      5  H        4   0.970000(     4)      1  125.265(    11)      2    0.000(    17)      0
      6      6  H        4   0.970000(     5)      1  125.265(    12)      2  180.000(    18)      0
      7      7  Ar       1   2.105550(     6)      2  125.265(    13)      3  180.000(    19)      0
      8         X        7   0.364980(     7)      1   90.000(    14)      2    0.000(    20)      0
      9         X        7   0.364980(     8)      1   90.000(    15)      2  180.000(    21)      0
 ---------------------------------------------------------------------------------------------------
                         Z-Matrix orientation:                         
 ---------------------------------------------------------------------
 Center     Atomic      Atomic             Coordinates (Angstroms)
 Number     Number       Type             X           Y           Z
 ---------------------------------------------------------------------
      1          8           0        0.000000    0.000000    0.000000
      2          1           0        0.000000    0.000000    0.970000
      3          1           0        0.914525    0.000000   -0.323333
      4          8           0       -3.755879   -0.000000   -2.655818
      5          1           0       -4.670405   -0.000000   -2.332489
      6          1           0       -3.755879   -0.000000   -3.625818
      7         18           0       -1.719172   -0.000000   -1.215643
      8         -1           0       -1.929894   -0.000000   -0.917639
      9         -1           0       -1.508450   -0.000000   -1.513648
 ---------------------------------------------------------------------
                    Distance matrix (angstroms):
                    1          2          3          4          5
     1  O    0.000000
     2  H    0.970000   0.000000
     3  H    0.970000   1.584003   0.000000
     4  O    4.600000   5.220459   5.220456   0.000000
     5  H    5.220459   5.720063   5.935330   0.970000   0.000000
     6  H    5.220459   5.935333   5.720060   0.970000   1.584001
     7  Ar   2.105550   2.780753   2.780751   2.494450   3.155491
     8  X    2.136949   2.699569   2.905842   2.521010   3.084186
     9  X    2.136949   2.905844   2.699566   2.521010   3.266261
                    6          7          8          9
     6  H    0.000000
     7  Ar   3.155491   0.000000
     8  X    3.266261   0.364980   0.000000
     9  X    3.084186   0.364980   0.729960   0.000000
 Stoichiometry    ArH4O2
 Framework group  CS[SG(ArH4O2)]
 Deg. of freedom    11
 Full point group                 CS      NOp   2
 Largest Abelian subgroup         CS      NOp   2
 Largest concise Abelian subgroup C1      NOp   1
                         Standard orientation:                         
 ---------------------------------------------------------------------
 Center     Atomic      Atomic             Coordinates (Angstroms)
 Number     Number       Type             X           Y           Z
 ---------------------------------------------------------------------
      1          8           0        0.000000   -2.207892    0.000000
      2          1           0        0.792001   -2.767923    0.000000
      3          1           0       -0.792003   -2.767920    0.000000
      4          8           0        0.000000    2.392108    0.000000
      5          1           0        0.792001    2.952139    0.000000
      6          1           0       -0.792001    2.952139    0.000000
      7         18           0        0.000000   -0.102342    0.000000
 ---------------------------------------------------------------------
 Rotational constants (GHZ):         199.8574983           2.4905622           2.4599076
 Standard basis: 6-31G (6D, 7F)
 There are    32 symmetry adapted cartesian basis functions of A'  symmetry.
 There are     7 symmetry adapted cartesian basis functions of A"  symmetry.
 There are    32 symmetry adapted basis functions of A'  symmetry.
 There are     7 symmetry adapted basis functions of A"  symmetry.
    39 basis functions,   106 primitive gaussians,    39 cartesian basis functions
    19 alpha electrons       19 beta electrons
       nuclear repulsion energy       108.7222957965 Hartrees.
 NAtoms=    7 NActive=    7 NUniq=    7 SFac= 1.00D+00 NAtFMM=   60 NAOKFM=F Big=F
 Integral buffers will be    131072 words long.
 Raffenetti 1 integral format.
 Two-electron integral symmetry is turned on.
 One-electron integrals computed using PRISM.
 NBasis=    39 RedAO= T EigKep=  7.00D-02  NBF=    32     7
 NBsUse=    39 1.00D-06 EigRej= -1.00D+00 NBFU=    32     7
 Initial guess from the checkpoint file:  "2H2_argon_input.chk"
 B after Tr=     0.000000    0.000000    0.000000
         Rot=    1.000000    0.000000    0.000000    0.000000 Ang=   0.00 deg.
 Initial guess orbital symmetries:
       Occupied  (A') (A') (A') (A') (A') (A") (A') (A') (A') (A')
                 (A') (A') (A') (A') (A") (A') (A") (A") (A')
       Virtual   (A') (A') (A') (A') (A') (A') (A") (A') (A') (A')
                 (A') (A') (A") (A") (A') (A') (A') (A') (A') (A')
 ExpMin= 1.61D-01 ExpMax= 2.83D+04 ExpMxC= 4.26D+03 IAcc=2 IRadAn=         4 AccDes= 0.00D+00
 Harris functional with IExCor=  205 and IRadAn=       4 diagonalized for initial guess.
 HarFok:  IExCor=  205 AccDes= 0.00D+00 IRadAn=         4 IDoV= 1 UseB2=F ITyADJ=14
 ICtDFT=  3500011 ScaDFX=  1.000000  1.000000  1.000000  1.000000
 FoFCou: FMM=F IPFlag=           0 FMFlag=      100000 FMFlg1=           0
         NFxFlg=           0 DoJE=T BraDBF=F KetDBF=T FulRan=T
         wScrn=  0.000000 ICntrl=       500 IOpCl=  0 I1Cent=   200000004 NGrid=           0
         NMat0=    1 NMatS0=      1 NMatT0=    0 NMatD0=    1 NMtDS0=    0 NMtDT0=    0
 Petite list used in FoFCou.
 Keep R1 ints in memory in symmetry-blocked form, NReq=2736079.
 Requested convergence on RMS density matrix=1.00D-08 within 128 cycles.
 Requested convergence on MAX density matrix=1.00D-06.
 Requested convergence on             energy=1.00D-06.
 No special actions if energy rises.
 SCF Done:  E(RHF) =  -678.658190653     A.U. after    9 cycles
            NFock=  9  Conv=0.53D-08     -V/T= 1.9992
 Variable Step   Value    
 -------- ---- -----------
    13       6    3.905421
    14       0    2.186278
 ---------------------------------------------------------------------------------------------------
                            Z-MATRIX (ANGSTROMS AND DEGREES)
   CD    Cent   Atom    N1       Length/X        N2       Alpha/Y        N3        Beta/Z          J
 ---------------------------------------------------------------------------------------------------
      1      1  O 
      2      2  H        1   0.970000(     1)
      3      3  H        1   0.970000(     2)      2  109.471(     9)
      4      4  O        1   4.600000(     3)      2  125.265(    10)      3  180.000(    16)      0
      5      5  H        4   0.970000(     4)      1  125.265(    11)      2    0.000(    17)      0
      6      6  H        4   0.970000(     5)      1  125.265(    12)      2  180.000(    18)      0
      7      7  Ar       1   2.066660(     6)      2  125.265(    13)      3  180.000(    19)      0
      8         X        7   0.364980(     7)      1   90.000(    14)      2    0.000(    20)      0
      9         X        7   0.364980(     8)      1   90.000(    15)      2  180.000(    21)      0
 ---------------------------------------------------------------------------------------------------
                         Z-Matrix orientation:                         
 ---------------------------------------------------------------------
 Center     Atomic      Atomic             Coordinates (Angstroms)
 Number     Number       Type             X           Y           Z
 ---------------------------------------------------------------------
      1          8           0        0.000000    0.000000    0.000000
      2          1           0        0.000000    0.000000    0.970000
      3          1           0        0.914525    0.000000   -0.323333
      4          8           0       -3.755879   -0.000000   -2.655818
      5          1           0       -4.670405   -0.000000   -2.332489
      6          1           0       -3.755879   -0.000000   -3.625818
      7         18           0       -1.687419   -0.000000   -1.193190
      8         -1           0       -1.898140   -0.000000   -0.895185
      9         -1           0       -1.476697   -0.000000   -1.491194
 ---------------------------------------------------------------------
                    Distance matrix (angstroms):
                    1          2          3          4          5
     1  O    0.000000
     2  H    0.970000   0.000000
     3  H    0.970000   1.584003   0.000000
     4  O    4.600000   5.220459   5.220456   0.000000
     5  H    5.220459   5.720063   5.935330   0.970000   0.000000
     6  H    5.220459   5.935333   5.720060   0.970000   1.584001
     7  Ar   2.066660   2.743496   2.743494   2.533340   3.193151
     8  X    2.098641   2.661175   2.870209   2.559496   3.122706
     9  X    2.098641   2.870211   2.661173   2.559496   3.302658
                    6          7          8          9
     6  H    0.000000
     7  Ar   3.193151   0.000000
     8  X    3.302658   0.364980   0.000000
     9  X    3.122706   0.364980   0.729960   0.000000
 Stoichiometry    ArH4O2
 Framework group  CS[SG(ArH4O2)]
 Deg. of freedom    11
 Full point group                 CS      NOp   2
 Largest Abelian subgroup         CS      NOp   2
 Largest concise Abelian subgroup C1      NOp   1
                         Standard orientation:                         
 ---------------------------------------------------------------------
 Center     Atomic      Atomic             Coordinates (Angstroms)
 Number     Number       Type             X           Y           Z
 ---------------------------------------------------------------------
      1          8           0        0.000000   -2.189471    0.000000
      2          1           0        0.792001   -2.749502    0.000000
      3          1           0       -0.792003   -2.749499    0.000000
      4          8           0        0.000000    2.410529    0.000000
      5          1           0        0.792001    2.970561    0.000000
      6          1           0       -0.792001    2.970561    0.000000
      7         18           0        0.000000   -0.122811    0.000000
 ---------------------------------------------------------------------
 Rotational constants (GHZ):         199.8574983           2.4866998           2.4561396
 Standard basis: 6-31G (6D, 7F)
 There are    32 symmetry adapted cartesian basis functions of A'  symmetry.
 There are     7 symmetry adapted cartesian basis functions of A"  symmetry.
 There are    32 symmetry adapted basis functions of A'  symmetry.
 There are     7 symmetry adapted basis functions of A"  symmetry.
    39 basis functions,   106 primitive gaussians,    39 cartesian basis functions
    19 alpha electrons       19 beta electrons
       nuclear repulsion energy       108.9562012024 Hartrees.
 NAtoms=    7 NActive=    7 NUniq=    7 SFac= 1.00D+00 NAtFMM=   60 NAOKFM=F Big=F
 Integral buffers will be    131072 words long.
 Raffenetti 1 integral format.
 Two-electron integral symmetry is turned on.
 One-electron integrals computed using PRISM.
 NBasis=    39 RedAO= T EigKep=  6.97D-02  NBF=    32     7
 NBsUse=    39 1.00D-06 EigRej= -1.00D+00 NBFU=    32     7
 Initial guess from the checkpoint file:  "2H2_argon_input.chk"
 B after Tr=    -0.000000   -0.000000    0.000000
         Rot=    1.000000    0.000000    0.000000    0.000000 Ang=   0.00 deg.
 Initial guess orbital symmetries:
       Occupied  (A') (A') (A') (A') (A') (A") (A') (A') (A') (A')
                 (A') (A') (A') (A') (A") (A') (A") (A") (A')
       Virtual   (A') (A') (A') (A') (A') (A') (A") (A') (A') (A')
                 (A') (A') (A") (A") (A') (A') (A') (A') (A') (A')
 ExpMin= 1.61D-01 ExpMax= 2.83D+04 ExpMxC= 4.26D+03 IAcc=2 IRadAn=         4 AccDes= 0.00D+00
 Harris functional with IExCor=  205 and IRadAn=       4 diagonalized for initial guess.
 HarFok:  IExCor=  205 AccDes= 0.00D+00 IRadAn=         4 IDoV= 1 UseB2=F ITyADJ=14
 ICtDFT=  3500011 ScaDFX=  1.000000  1.000000  1.000000  1.000000
 FoFCou: FMM=F IPFlag=           0 FMFlag=      100000 FMFlg1=           0
         NFxFlg=           0 DoJE=T BraDBF=F KetDBF=T FulRan=T
         wScrn=  0.000000 ICntrl=       500 IOpCl=  0 I1Cent=   200000004 NGrid=           0
         NMat0=    1 NMatS0=      1 NMatT0=    0 NMatD0=    1 NMtDS0=    0 NMtDT0=    0
 Petite list used in FoFCou.
 Keep R1 ints in memory in symmetry-blocked form, NReq=2736106.
 Requested convergence on RMS density matrix=1.00D-08 within 128 cycles.
 Requested convergence on MAX density matrix=1.00D-06.
 Requested convergence on             energy=1.00D-06.
 No special actions if energy rises.
 SCF Done:  E(RHF) =  -678.650812234     A.U. after    9 cycles
            NFock=  9  Conv=0.55D-08     -V/T= 1.9991
 Variable Step   Value    
 -------- ---- -----------
    13       7    3.831930
    14       0    2.186278
 ---------------------------------------------------------------------------------------------------
                            Z-MATRIX (ANGSTROMS AND DEGREES)
   CD    Cent   Atom    N1       Length/X        N2       Alpha/Y        N3        Beta/Z          J
 ---------------------------------------------------------------------------------------------------
      1      1  O 
      2      2  H        1   0.970000(     1)
      3      3  H        1   0.970000(     2)      2  109.471(     9)
      4      4  O        1   4.600000(     3)      2  125.265(    10)      3  180.000(    16)      0
      5      5  H        4   0.970000(     4)      1  125.265(    11)      2    0.000(    17)      0
      6      6  H        4   0.970000(     5)      1  125.265(    12)      2  180.000(    18)      0
      7      7  Ar       1   2.027770(     6)      2  125.265(    13)      3  180.000(    19)      0
      8         X        7   0.364980(     7)      1   90.000(    14)      2    0.000(    20)      0
      9         X        7   0.364980(     8)      1   90.000(    15)      2  180.000(    21)      0
 ---------------------------------------------------------------------------------------------------
                         Z-Matrix orientation:                         
 ---------------------------------------------------------------------
 Center     Atomic      Atomic             Coordinates (Angstroms)
 Number     Number       Type             X           Y           Z
 ---------------------------------------------------------------------
      1          8           0        0.000000    0.000000    0.000000
      2          1           0        0.000000    0.000000    0.970000
      3          1           0        0.914525    0.000000   -0.323333
      4          8           0       -3.755879   -0.000000   -2.655818
      5          1           0       -4.670405   -0.000000   -2.332489
      6          1           0       -3.755879   -0.000000   -3.625818
      7         18           0       -1.655665   -0.000000   -1.170737
      8         -1           0       -1.866387   -0.000000   -0.872732
      9         -1           0       -1.444943   -0.000000   -1.468741
 ---------------------------------------------------------------------
                    Distance matrix (angstroms):
                    1          2          3          4          5
     1  O    0.000000
     2  H    0.970000   0.000000
     3  H    0.970000   1.584003   0.000000
     4  O    4.600000   5.220459   5.220456   0.000000
     5  H    5.220459   5.720063   5.935330   0.970000   0.000000
     6  H    5.220459   5.935333   5.720060   0.970000   1.584001
     7  Ar   2.027770   2.706285   2.706283   2.572230   3.230840
     8  X    2.060355   2.622797   2.834662   2.597995   3.161235
     9  X    2.060355   2.834664   2.622794   2.597995   3.339111
                    6          7          8          9
     6  H    0.000000
     7  Ar   3.230840   0.000000
     8  X    3.339111   0.364980   0.000000
     9  X    3.161235   0.364980   0.729960   0.000000
 Stoichiometry    ArH4O2
 Framework group  CS[SG(ArH4O2)]
 Deg. of freedom    11
 Full point group                 CS      NOp   2
 Largest Abelian subgroup         CS      NOp   2
 Largest concise Abelian subgroup C1      NOp   1
                         Standard orientation:                         
 ---------------------------------------------------------------------
 Center     Atomic      Atomic             Coordinates (Angstroms)
 Number     Number       Type             X           Y           Z
 ---------------------------------------------------------------------
      1          8           0        0.000000   -2.171049    0.000000
      2          1           0        0.792001   -2.731080   -0.000000
      3          1           0       -0.792003   -2.731077    0.000000
      4          8           0        0.000000    2.428951   -0.000000
      5          1           0        0.792001    2.988982   -0.000000
      6          1           0       -0.792001    2.988982    0.000000
      7         18           0        0.000000   -0.143279    0.000000
 ---------------------------------------------------------------------
 Rotational constants (GHZ):         199.8574983           2.4821505           2.4517013
 Standard basis: 6-31G (6D, 7F)
 There are    32 symmetry adapted cartesian basis functions of A'  symmetry.
 There are     7 symmetry adapted cartesian basis functions of A"  symmetry.
 There are    32 symmetry adapted basis functions of A'  symmetry.
 There are     7 symmetry adapted basis functions of A"  symmetry.
    39 basis functions,   106 primitive gaussians,    39 cartesian basis functions
    19 alpha electrons       19 beta electrons
       nuclear repulsion energy       109.2344585597 Hartrees.
 NAtoms=    7 NActive=    7 NUniq=    7 SFac= 1.00D+00 NAtFMM=   60 NAOKFM=F Big=F
 Integral buffers will be    131072 words long.
 Raffenetti 1 integral format.
 Two-electron integral symmetry is turned on.
 One-electron integrals computed using PRISM.
 NBasis=    39 RedAO= T EigKep=  6.94D-02  NBF=    32     7
 NBsUse=    39 1.00D-06 EigRej= -1.00D+00 NBFU=    32     7
 Initial guess from the checkpoint file:  "2H2_argon_input.chk"
 B after Tr=    -0.000000    0.000000    0.000000
         Rot=    1.000000   -0.000000    0.000000    0.000000 Ang=   0.00 deg.
 Initial guess orbital symmetries:
       Occupied  (A') (A') (A') (A') (A') (A") (A') (A') (A') (A')
                 (A') (A') (A') (A') (A") (A') (A") (A") (A')
       Virtual   (A') (A') (A') (A') (A') (A') (A") (A') (A') (A')
                 (A') (A') (A") (A") (A') (A') (A') (A') (A') (A')
 ExpMin= 1.61D-01 ExpMax= 2.83D+04 ExpMxC= 4.26D+03 IAcc=2 IRadAn=         4 AccDes= 0.00D+00
 Harris functional with IExCor=  205 and IRadAn=       4 diagonalized for initial guess.
 HarFok:  IExCor=  205 AccDes= 0.00D+00 IRadAn=         4 IDoV= 1 UseB2=F ITyADJ=14
 ICtDFT=  3500011 ScaDFX=  1.000000  1.000000  1.000000  1.000000
 FoFCou: FMM=F IPFlag=           0 FMFlag=      100000 FMFlg1=           0
         NFxFlg=           0 DoJE=T BraDBF=F KetDBF=T FulRan=T
         wScrn=  0.000000 ICntrl=       500 IOpCl=  0 I1Cent=   200000004 NGrid=           0
         NMat0=    1 NMatS0=      1 NMatT0=    0 NMatD0=    1 NMtDS0=    0 NMtDT0=    0
 Petite list used in FoFCou.
 Keep R1 ints in memory in symmetry-blocked form, NReq=2736079.
 Requested convergence on RMS density matrix=1.00D-08 within 128 cycles.
 Requested convergence on MAX density matrix=1.00D-06.
 Requested convergence on             energy=1.00D-06.
 No special actions if energy rises.
 SCF Done:  E(RHF) =  -678.641792767     A.U. after    9 cycles
            NFock=  9  Conv=0.54D-08     -V/T= 1.9990
 Variable Step   Value    
 -------- ---- -----------
    13       8    3.758438
    14       0    2.186278
 ---------------------------------------------------------------------------------------------------
                            Z-MATRIX (ANGSTROMS AND DEGREES)
   CD    Cent   Atom    N1       Length/X        N2       Alpha/Y        N3        Beta/Z          J
 ---------------------------------------------------------------------------------------------------
      1      1  O 
      2      2  H        1   0.970000(     1)
      3      3  H        1   0.970000(     2)      2  109.471(     9)
      4      4  O        1   4.600000(     3)      2  125.265(    10)      3  180.000(    16)      0
      5      5  H        4   0.970000(     4)      1  125.265(    11)      2    0.000(    17)      0
      6      6  H        4   0.970000(     5)      1  125.265(    12)      2  180.000(    18)      0
      7      7  Ar       1   1.988880(     6)      2  125.265(    13)      3  180.000(    19)      0
      8         X        7   0.364980(     7)      1   90.000(    14)      2    0.000(    20)      0
      9         X        7   0.364980(     8)      1   90.000(    15)      2  180.000(    21)      0
 ---------------------------------------------------------------------------------------------------
                         Z-Matrix orientation:                         
 ---------------------------------------------------------------------
 Center     Atomic      Atomic             Coordinates (Angstroms)
 Number     Number       Type             X           Y           Z
 ---------------------------------------------------------------------
      1          8           0        0.000000    0.000000    0.000000
      2          1           0        0.000000    0.000000    0.970000
      3          1           0        0.914525    0.000000   -0.323333
      4          8           0       -3.755879   -0.000000   -2.655818
      5          1           0       -4.670405   -0.000000   -2.332489
      6          1           0       -3.755879   -0.000000   -3.625818
      7         18           0       -1.623912   -0.000000   -1.148284
      8         -1           0       -1.834633   -0.000000   -0.850279
      9         -1           0       -1.413190   -0.000000   -1.446288
 ---------------------------------------------------------------------
                    Distance matrix (angstroms):
                    1          2          3          4          5
     1  O    0.000000
     2  H    0.970000   0.000000
     3  H    0.970000   1.584003   0.000000
     4  O    4.600000   5.220459   5.220456   0.000000
     5  H    5.220459   5.720063   5.935330   0.970000   0.000000
     6  H    5.220459   5.935333   5.720060   0.970000   1.584001
     7  Ar   1.988880   2.669122   2.669120   2.611120   3.268557
     8  X    2.022092   2.584433   2.799204   2.636505   3.199773
     9  X    2.022092   2.799206   2.584431   2.636505   3.375619
                    6          7          8          9
     6  H    0.000000
     7  Ar   3.268557   0.000000
     8  X    3.375619   0.364980   0.000000
     9  X    3.199773   0.364980   0.729960   0.000000
 Stoichiometry    ArH4O2
 Framework group  CS[SG(ArH4O2)]
 Deg. of freedom    11
 Full point group                 CS      NOp   2
 Largest Abelian subgroup         CS      NOp   2
 Largest concise Abelian subgroup C1      NOp   1
                         Standard orientation:                         
 ---------------------------------------------------------------------
 Center     Atomic      Atomic             Coordinates (Angstroms)
 Number     Number       Type             X           Y           Z
 ---------------------------------------------------------------------
      1          8           0        0.000000   -2.152627   -0.000000
      2          1           0        0.792001   -2.712659   -0.000000
      3          1           0       -0.792003   -2.712656    0.000000
      4          8           0        0.000000    2.447373   -0.000000
      5          1           0        0.792001    3.007404   -0.000000
      6          1           0       -0.792001    3.007404    0.000000
      7         18           0        0.000000   -0.163747   -0.000000
 ---------------------------------------------------------------------
 Rotational constants (GHZ):         199.8574983           2.4769220           2.4466002
 Standard basis: 6-31G (6D, 7F)
 There are    32 symmetry adapted cartesian basis functions of A'  symmetry.
 There are     7 symmetry adapted cartesian basis functions of A"  symmetry.
 There are    32 symmetry adapted basis functions of A'  symmetry.
 There are     7 symmetry adapted basis functions of A"  symmetry.
    39 basis functions,   106 primitive gaussians,    39 cartesian basis functions
    19 alpha electrons       19 beta electrons
       nuclear repulsion energy       109.5580067818 Hartrees.
 NAtoms=    7 NActive=    7 NUniq=    7 SFac= 1.00D+00 NAtFMM=   60 NAOKFM=F Big=F
 Integral buffers will be    131072 words long.
 Raffenetti 1 integral format.
 Two-electron integral symmetry is turned on.
 One-electron integrals computed using PRISM.
 NBasis=    39 RedAO= T EigKep=  6.90D-02  NBF=    32     7
 NBsUse=    39 1.00D-06 EigRej= -1.00D+00 NBFU=    32     7
 Initial guess from the checkpoint file:  "2H2_argon_input.chk"
 B after Tr=     0.000000   -0.000000   -0.000000
         Rot=    1.000000   -0.000000    0.000000    0.000000 Ang=   0.00 deg.
 Initial guess orbital symmetries:
       Occupied  (A') (A') (A') (A') (A') (A") (A') (A') (A') (A')
                 (A') (A') (A') (A') (A") (A') (A") (A") (A')
       Virtual   (A') (A') (A') (A') (A') (A') (A") (A') (A') (A')
                 (A') (A') (A") (A") (A') (A') (A') (A') (A') (A')
 ExpMin= 1.61D-01 ExpMax= 2.83D+04 ExpMxC= 4.26D+03 IAcc=2 IRadAn=         4 AccDes= 0.00D+00
 Harris functional with IExCor=  205 and IRadAn=       4 diagonalized for initial guess.
 HarFok:  IExCor=  205 AccDes= 0.00D+00 IRadAn=         4 IDoV= 1 UseB2=F ITyADJ=14
 ICtDFT=  3500011 ScaDFX=  1.000000  1.000000  1.000000  1.000000
 FoFCou: FMM=F IPFlag=           0 FMFlag=      100000 FMFlg1=           0
         NFxFlg=           0 DoJE=T BraDBF=F KetDBF=T FulRan=T
         wScrn=  0.000000 ICntrl=       500 IOpCl=  0 I1Cent=   200000004 NGrid=           0
         NMat0=    1 NMatS0=      1 NMatT0=    0 NMatD0=    1 NMtDS0=    0 NMtDT0=    0
 Petite list used in FoFCou.
 Keep R1 ints in memory in symmetry-blocked form, NReq=2736139.
 Requested convergence on RMS density matrix=1.00D-08 within 128 cycles.
 Requested convergence on MAX density matrix=1.00D-06.
 Requested convergence on             energy=1.00D-06.
 No special actions if energy rises.
 SCF Done:  E(RHF) =  -678.630976622     A.U. after    9 cycles
            NFock=  9  Conv=0.52D-08     -V/T= 1.9989
 Variable Step   Value    
 -------- ---- -----------
    13       9    3.684947
    14       0    2.186278
 ---------------------------------------------------------------------------------------------------
                            Z-MATRIX (ANGSTROMS AND DEGREES)
   CD    Cent   Atom    N1       Length/X        N2       Alpha/Y        N3        Beta/Z          J
 ---------------------------------------------------------------------------------------------------
      1      1  O 
      2      2  H        1   0.970000(     1)
      3      3  H        1   0.970000(     2)      2  109.471(     9)
      4      4  O        1   4.600000(     3)      2  125.265(    10)      3  180.000(    16)      0
      5      5  H        4   0.970000(     4)      1  125.265(    11)      2    0.000(    17)      0
      6      6  H        4   0.970000(     5)      1  125.265(    12)      2  180.000(    18)      0
      7      7  Ar       1   1.949990(     6)      2  125.265(    13)      3  180.000(    19)      0
      8         X        7   0.364980(     7)      1   90.000(    14)      2    0.000(    20)      0
      9         X        7   0.364980(     8)      1   90.000(    15)      2  180.000(    21)      0
 ---------------------------------------------------------------------------------------------------
                         Z-Matrix orientation:                         
 ---------------------------------------------------------------------
 Center     Atomic      Atomic             Coordinates (Angstroms)
 Number     Number       Type             X           Y           Z
 ---------------------------------------------------------------------
      1          8           0        0.000000    0.000000    0.000000
      2          1           0        0.000000    0.000000    0.970000
      3          1           0        0.914525    0.000000   -0.323333
      4          8           0       -3.755879   -0.000000   -2.655818
      5          1           0       -4.670405   -0.000000   -2.332489
      6          1           0       -3.755879   -0.000000   -3.625818
      7         18           0       -1.592158   -0.000000   -1.125830
      8         -1           0       -1.802880   -0.000000   -0.827826
      9         -1           0       -1.381436   -0.000000   -1.423835
 ---------------------------------------------------------------------
                    Distance matrix (angstroms):
                    1          2          3          4          5
     1  O    0.000000
     2  H    0.970000   0.000000
     3  H    0.970000   1.584003   0.000000
     4  O    4.600000   5.220459   5.220456   0.000000
     5  H    5.220459   5.720063   5.935330   0.970000   0.000000
     6  H    5.220459   5.935333   5.720060   0.970000   1.584001
     7  Ar   1.949990   2.632009   2.632007   2.650010   3.306302
     8  X    1.983853   2.546086   2.763838   2.675026   3.238319
     9  X    1.983853   2.763840   2.546083   2.675026   3.412180
                    6          7          8          9
     6  H    0.000000
     7  Ar   3.306302   0.000000
     8  X    3.412180   0.364980   0.000000
     9  X    3.238319   0.364980   0.729960   0.000000
 Stoichiometry    ArH4O2
 Framework group  CS[SG(ArH4O2)]
 Deg. of freedom    11
 Full point group                 CS      NOp   2
 Largest Abelian subgroup         CS      NOp   2
 Largest concise Abelian subgroup C1      NOp   1
                         Standard orientation:                         
 ---------------------------------------------------------------------
 Center     Atomic      Atomic             Coordinates (Angstroms)
 Number     Number       Type             X           Y           Z
 ---------------------------------------------------------------------
      1          8           0        0.000000   -2.134206    0.000000
      2          1           0        0.792001   -2.694237    0.000000
      3          1           0       -0.792003   -2.694234    0.000000
      4          8           0        0.000000    2.465794   -0.000000
      5          1           0        0.792001    3.025825   -0.000000
      6          1           0       -0.792001    3.025825   -0.000000
      7         18           0        0.000000   -0.184216    0.000000
 ---------------------------------------------------------------------
 Rotational constants (GHZ):         199.8574983           2.4710229           2.4408444
 Standard basis: 6-31G (6D, 7F)
 There are    32 symmetry adapted cartesian basis functions of A'  symmetry.
 There are     7 symmetry adapted cartesian basis functions of A"  symmetry.
 There are    32 symmetry adapted basis functions of A'  symmetry.
 There are     7 symmetry adapted basis functions of A"  symmetry.
    39 basis functions,   106 primitive gaussians,    39 cartesian basis functions
    19 alpha electrons       19 beta electrons
       nuclear repulsion energy       109.9279507000 Hartrees.
 NAtoms=    7 NActive=    7 NUniq=    7 SFac= 1.00D+00 NAtFMM=   60 NAOKFM=F Big=F
 Integral buffers will be    131072 words long.
 Raffenetti 1 integral format.
 Two-electron integral symmetry is turned on.
 One-electron integrals computed using PRISM.
 NBasis=    39 RedAO= T EigKep=  6.84D-02  NBF=    32     7
 NBsUse=    39 1.00D-06 EigRej= -1.00D+00 NBFU=    32     7
 Initial guess from the checkpoint file:  "2H2_argon_input.chk"
 B after Tr=    -0.000000    0.000000    0.000000
         Rot=    1.000000   -0.000000    0.000000    0.000000 Ang=   0.00 deg.
 Initial guess orbital symmetries:
       Occupied  (A') (A') (A') (A') (A') (A") (A') (A') (A') (A')
                 (A') (A') (A') (A') (A") (A') (A") (A") (A')
       Virtual   (A') (A') (A') (A') (A') (A') (A") (A') (A') (A')
                 (A') (A') (A") (A") (A') (A') (A') (A') (A') (A')
 ExpMin= 1.61D-01 ExpMax= 2.83D+04 ExpMxC= 4.26D+03 IAcc=2 IRadAn=         4 AccDes= 0.00D+00
 Harris functional with IExCor=  205 and IRadAn=       4 diagonalized for initial guess.
 HarFok:  IExCor=  205 AccDes= 0.00D+00 IRadAn=         4 IDoV= 1 UseB2=F ITyADJ=14
 ICtDFT=  3500011 ScaDFX=  1.000000  1.000000  1.000000  1.000000
 FoFCou: FMM=F IPFlag=           0 FMFlag=      100000 FMFlg1=           0
         NFxFlg=           0 DoJE=T BraDBF=F KetDBF=T FulRan=T
         wScrn=  0.000000 ICntrl=       500 IOpCl=  0 I1Cent=   200000004 NGrid=           0
         NMat0=    1 NMatS0=      1 NMatT0=    0 NMatD0=    1 NMtDS0=    0 NMtDT0=    0
 Petite list used in FoFCou.
 Keep R1 ints in memory in symmetry-blocked form, NReq=2736112.
 Requested convergence on RMS density matrix=1.00D-08 within 128 cycles.
 Requested convergence on MAX density matrix=1.00D-06.
 Requested convergence on             energy=1.00D-06.
 No special actions if energy rises.
 SCF Done:  E(RHF) =  -678.618180101     A.U. after    9 cycles
            NFock=  9  Conv=0.48D-08     -V/T= 1.9988
 Variable Step   Value    
 -------- ---- -----------
    13      10    3.611456
    14       0    2.186278
 ---------------------------------------------------------------------------------------------------
                            Z-MATRIX (ANGSTROMS AND DEGREES)
   CD    Cent   Atom    N1       Length/X        N2       Alpha/Y        N3        Beta/Z          J
 ---------------------------------------------------------------------------------------------------
      1      1  O 
      2      2  H        1   0.970000(     1)
      3      3  H        1   0.970000(     2)      2  109.471(     9)
      4      4  O        1   4.600000(     3)      2  125.265(    10)      3  180.000(    16)      0
      5      5  H        4   0.970000(     4)      1  125.265(    11)      2    0.000(    17)      0
      6      6  H        4   0.970000(     5)      1  125.265(    12)      2  180.000(    18)      0
      7      7  Ar       1   1.911100(     6)      2  125.265(    13)      3  180.000(    19)      0
      8         X        7   0.364980(     7)      1   90.000(    14)      2    0.000(    20)      0
      9         X        7   0.364980(     8)      1   90.000(    15)      2  180.000(    21)      0
 ---------------------------------------------------------------------------------------------------
[...]
  104     1.9889    75.2645   -678.64071
  105     1.9500    75.2645   -678.62575
  106     1.9111    75.2645   -678.60859
  107     1.8722    75.2645   -678.58894
  108     1.8333    75.2645   -678.56646
  109     1.7944    75.2645   -678.54077
  110     1.7555    75.2645   -678.51145
  111     1.7167    75.2645   -678.47804
  112     1.6778    75.2645   -678.44003
  113     1.6389    75.2645   -678.39687
  114     1.6000    75.2645   -678.34798
  115     2.3000    65.2645   -678.70459
  116     2.2611    65.2645   -678.69920
  117     2.2222    65.2645   -678.69300
  118     2.1833    65.2645   -678.68585
  119     2.1444    65.2645   -678.67764
  120     2.1056    65.2645   -678.66820
  121     2.0667    65.2645   -678.65736
  122     2.0278    65.2645   -678.64492
  123     1.9889    65.2645   -678.63067
  124     1.9500    65.2645   -678.61434
  125     1.9111    65.2645   -678.59567
  126     1.8722    65.2645   -678.57432
  127     1.8333    65.2645   -678.54994
  128     1.7944    65.2645   -678.52214
  129     1.7555    65.2645   -678.49048
  130     1.7167    65.2645   -678.45447
  131     1.6778    65.2645   -678.41358
  132     1.6389    65.2645   -678.36724
  133     1.6000    65.2645   -678.31484
  134     2.3000    55.2645   -678.69798
  135     2.2611    55.2645   -678.69168
  136     2.2222    55.2645   -678.68445
  137     2.1833    55.2645   -678.67616
  138     2.1444    55.2645   -678.66666
  139     2.1056    55.2645   -678.65578
  140     2.0667    55.2645   -678.64333
  141     2.0278    55.2645   -678.62910
  142     1.9889    55.2645   -678.61285
  143     1.9500    55.2645   -678.59430
  144     1.9111    55.2645   -678.57317
  145     1.8722    55.2645   -678.54910
  146     1.8333    55.2645   -678.52172
  147     1.7944    55.2645   -678.49062
  148     1.7555    55.2645   -678.45532
  149     1.7167    55.2645   -678.41534
  150     1.6778    55.2645   -678.37012
  151     1.6389    55.2645   -678.31907
  152     1.6000    55.2645   -678.26157
  153     2.3000    45.2645   -678.68737
  154     2.2611    45.2645   -678.67967
  155     2.2222    45.2645   -678.67088
  156     2.1833    45.2645   -678.66083
  157     2.1444    45.2645   -678.64936
  158     2.1056    45.2645   -678.63628
  159     2.0667    45.2645   -678.62138
  160     2.0278    45.2645   -678.60441
  161     1.9889    45.2645   -678.58512
  162     1.9500    45.2645   -678.56319
  163     1.9111    45.2645   -678.53829
  164     1.8722    45.2645   -678.51005
  165     1.8333    45.2645   -678.47805
  166     1.7944    45.2645   -678.44183
  167     1.7555    45.2645   -678.40090
  168     1.7167    45.2645   -678.35471
  169     1.6778    45.2645   -678.30265
  170     1.6389    45.2645   -678.24411
  171     1.6000    45.2645   -678.17842
  172     2.3000    35.2645   -678.67230
  173     2.2611    35.2645   -678.66264
  174     2.2222    35.2645   -678.65161
  175     2.1833    35.2645   -678.63906
  176     2.1444    35.2645   -678.62477
  177     2.1056    35.2645   -678.60850
  178     2.0667    35.2645   -678.59000
  179     2.0278    35.2645   -678.56897
  180     1.9889    35.2645   -678.54508
  181     1.9500    35.2645   -678.51795
  182     1.9111    35.2645   -678.48716
  183     1.8722    35.2645   -678.45223
  184     1.8333    35.2645   -678.41264
  185     1.7944    35.2645   -678.36778
  186     1.7555    35.2645   -678.31698
  187     1.7167    35.2645   -678.25952
  188     1.6778    35.2645   -678.19457
  189     1.6389    35.2645   -678.12126
  190     1.6000    35.2645   -678.03862
  191     2.3000    25.2645   -678.65339
  192     2.2611    25.2645   -678.64115
  193     2.2222    25.2645   -678.62720
  194     2.1833    25.2645   -678.61128
  195     2.1444    25.2645   -678.59312
  196     2.1056    25.2645   -678.57240
  197     2.0667    25.2645   -678.54875
  198     2.0278    25.2645   -678.52174
  199     1.9889    25.2645   -678.49088
  200     1.9500    25.2645   -678.45560
  201     1.9111    25.2645   -678.41524
  202     1.8722    25.2645   -678.36902
  203     1.8333    25.2645   -678.31605
  204     1.7944    25.2645   -678.25531
  205     1.7555    25.2645   -678.18558
  206     1.7167    25.2645   -678.10551
  207     1.6778    25.2645   -678.01349
  208     1.6389    25.2645   -677.90775
  209     1.6000    25.2645   -677.78625
  210     2.3000    15.2645   -678.63347
  211     2.2611    15.2645   -678.61835
  212     2.2222    15.2645   -678.60103
  213     2.1833    15.2645   -678.58118
  214     2.1444    15.2645   -678.55839
  215     2.1056    15.2645   -678.53219
  216     2.0667    15.2645   -678.50203
  217     2.0278    15.2645   -678.46723
  218     1.9889    15.2645   -678.42701
  219     1.9500    15.2645   -678.38040
  220     1.9111    15.2645   -678.32627
  221     1.8722    15.2645   -678.26326
  222     1.8333    15.2645   -678.18970
  223     1.7944    15.2645   -678.10364
  224     1.7555    15.2645   -678.00270
  225     1.7167    15.2645   -677.88403
  226     1.6778    15.2645   -677.74425
  227     1.6389    15.2645   -677.57930
  228     1.6000    15.2645   -677.38439
  229     2.3000     5.2645   -678.61863
  230     2.2611     5.2645   -678.60126
  231     2.2222     5.2645   -678.58129
  232     2.1833     5.2645   -678.55829
  233     2.1444     5.2645   -678.53174
  234     2.1056     5.2645   -678.50103
  235     2.0667     5.2645   -678.46541
  236     2.0278     5.2645   -678.42396
  237     1.9889     5.2645   -678.37559
  238     1.9500     5.2645   -678.31895
  239     1.9111     5.2645   -678.25239
  240     1.8722     5.2645   -678.17390
  241     1.8333     5.2645   -678.08100
  242     1.7944     5.2645   -677.97064
  243     1.7555     5.2645   -677.83909
  244     1.7167     5.2645   -677.68170
  245     1.6778     5.2645   -677.49277
  246     1.6389     5.2645   -677.26521
  247     1.6000     5.2645   -676.99025
  248     2.3000    -4.7355   -678.61553
  249     2.2611    -4.7355   -678.59783
  250     2.2222    -4.7355   -678.57750
  251     2.1833    -4.7355   -678.55410
  252     2.1444    -4.7355   -678.52711
  253     2.1056    -4.7355   -678.49591
  254     2.0667    -4.7355   -678.45974
  255     2.0278    -4.7355   -678.41768
  256     1.9889    -4.7355   -678.36861
  257     1.9500    -4.7355   -678.31118
  258     1.9111    -4.7355   -678.24369
  259     1.8722    -4.7355   -678.16413
  260     1.8333    -4.7355   -678.06996
  261     1.7944    -4.7355   -677.95810
  262     1.7555    -4.7355   -677.82474
  263     1.7167    -4.7355   -677.66518
  264     1.6778    -4.7355   -677.47360
  265     1.6389    -4.7355   -677.24281
  266     1.6000    -4.7355   -676.96386
  267     2.3000   -14.7355   -678.62448
  268     2.2611   -14.7355   -678.60838
  269     2.2222   -14.7355   -678.58998
  270     2.1833   -14.7355   -678.56895
  271     2.1444   -14.7355   -678.54487
  272     2.1056   -14.7355   -678.51724
  273     2.0667   -14.7355   -678.48549
  274     2.0278   -14.7355   -678.44893
  275     1.9889   -14.7355   -678.40674
  276     1.9500   -14.7355   -678.35792
  277     1.9111   -14.7355   -678.30129
  278     1.8722   -14.7355   -678.23543
  279     1.8333   -14.7355   -678.15863
  280     1.7944   -14.7355   -678.06882
  281     1.7555   -14.7355   -677.96353
  282     1.7167   -14.7355   -677.83982
  283     1.6778   -14.7355   -677.69413
  284     1.6389   -14.7355   -677.52225
  285     1.6000   -14.7355   -677.31917
  286     2.3000   -24.7355   -678.63936
  287     2.2611   -24.7355   -678.62554
  288     2.2222   -24.7355   -678.60985
  289     2.1833   -24.7355   -678.59203
  290     2.1444   -24.7355   -678.57176
  291     2.1056   -24.7355   -678.54873
  292     2.0667   -24.7355   -678.52252
  293     2.0278   -24.7355   -678.49268
  294     1.9889   -24.7355   -678.45870
  295     1.9500   -24.7355   -678.41994
  296     1.9111   -24.7355   -678.37572
  297     1.8722   -24.7355   -678.32521
  298     1.8333   -24.7355   -678.26746
  299     1.7944   -24.7355   -678.20137
  300     1.7555   -24.7355   -678.12567
  301     1.7167   -24.7355   -678.03891
  302     1.6778   -24.7355   -677.93944
  303     1.6389   -24.7355   -677.82539
  304     1.6000   -24.7355   -677.69466
  305     2.3000   -34.7355   -678.65389
  306     2.2611   -34.7355   -678.64205
  307     2.2222   -34.7355   -678.62861
  308     2.1833   -34.7355   -678.61338
  309     2.1444   -34.7355   -678.59613
  310     2.1056   -34.7355   -678.57657
  311     2.0667   -34.7355   -678.55443
  312     2.0278   -34.7355   -678.52936
  313     1.9889   -34.7355   -678.50099
  314     1.9500   -34.7355   -678.46890
  315     1.9111   -34.7355   -678.43259
  316     1.8722   -34.7355   -678.39156
  317     1.8333   -34.7355   -678.34520
  318     1.7944   -34.7355   -678.29285
  319     1.7555   -34.7355   -678.23379
  320     1.7167   -34.7355   -678.16722
  321     1.6778   -34.7355   -678.09230
  322     1.6389   -34.7355   -678.00812
  323     1.6000   -34.7355   -677.91375
  324     2.3000   -44.7355   -678.66406
  325     2.2611   -44.7355   -678.65347
  326     2.2222   -44.7355   -678.64144
  327     2.1833   -44.7355   -678.62779
  328     2.1444   -44.7355   -678.61230
  329     2.1056   -44.7355   -678.59475
  330     2.0667   -44.7355   -678.57486
  331     2.0278   -44.7355   -678.55234
  332     1.9889   -44.7355   -678.52685
  333     1.9500   -44.7355   -678.49803
  334     1.9111   -44.7355   -678.46548
  335     1.8722   -44.7355   -678.42872
  336     1.8333   -44.7355   -678.38728
  337     1.7944   -44.7355   -678.34060
  338     1.7555   -44.7355   -678.28809
  339     1.7167   -44.7355   -678.22912
  340     1.6778   -44.7355   -678.16304
  341     1.6389   -44.7355   -678.08917
  342     1.6000   -44.7355   -678.00690
  343     2.3000   -54.7355   -678.66768
  344     2.2611   -54.7355   -678.65752
  345     2.2222   -54.7355   -678.64597
  346     2.1833   -54.7355   -678.63284
  347     2.1444   -54.7355   -678.61794
  348     2.1056   -54.7355   -678.60102
  349     2.0667   -54.7355   -678.58185
  350     2.0278   -54.7355   -678.56011
  351     1.9889   -54.7355   -678.53550
  352     1.9500   -54.7355   -678.50765
  353     1.9111   -54.7355   -678.47616
  354     1.8722   -54.7355   -678.44059
  355     1.8333   -54.7355   -678.40045
  356     1.7944   -54.7355   -678.35521
  357     1.7555   -54.7355   -678.30428
  358     1.7167   -54.7355   -678.24706
  359     1.6778   -54.7355   -678.18289
  360     1.6389   -54.7355   -678.11111
  361     1.6000   -54.7355   -678.03111
 ----  ---------  ---------  -----------
  
 1\1\GINC-NSCC-N14\Scan\RHF\6-31G\Ar1H4O2\JKIM22\16-Jun-2020\1\\# scan 
 hf/6-31g\\2H2O_argon_input\\0,1\O\H,1,B1\H,1,B2,2,A1\O,1,B3,2,A2,3,D1,
 0\H,4,B4,1,A3,2,D2,0\H,4,B5,1,A4,2,D3,0\Ar,1,B6,2,A5,3,D4,0\X,7,B7,1,A
 6,2,D5,0\X,7,B8,1,A7,2,D6,0\\B1=0.97\B2=0.97\A1=109.47122063\B3=4.6\A2
 =125.2645\D1=180.\B4=0.97\A3=125.2645\D2=0.\B5=0.97\A4=125.2645\D3=180
 .\B6=2.3,s,18,-0.03889\A5=125.2645,s,18,-10.\D4=180.\B7=0.36498\A6=90.
 \D5=0.\B8=0.36498\A7=90.\D6=180.\\Version=ES64L-G16RevA.03\HF=-678.674
 1123,-678.6734977,-678.6716429,-678.6685146,-678.6640569,-678.6581907,
 -678.6508122,-678.6417928,-678.6309766,-678.6181801,-678.6031902,-678.
 5857634,-678.5656255,-678.5424722,-678.515971,-678.4857669,-678.451490
 8,-678.4127752,-678.3692777,-678.6823243,-678.6806111,-678.6778303,-67
 8.6739234,-678.6688127,-678.6624004,-678.6545672,-678.6451705,-678.634
 043,-678.6209905,-678.6057911,-678.588193,-678.5679142,-678.5446423,-6
 78.5180365,-678.4877315,-678.4533461,-678.4144964,-678.3708178,-678.69
 6611,-678.693185,-678.6889399,-678.6837845,-678.6776129,-678.6703022,-
 678.661711,-678.6516771,-678.6400157,-678.6265168,-678.6109435,-678.59
 30297,-678.5724787,-678.5489625,-678.5221218,-678.4915691,-678.4568937
 ,-678.4176726,-678.3734876,-678.705494,-678.7012082,-678.6962037,-678.
 6903785,-678.6836161,-678.6757838,-678.6667307,-678.6562853,-678.64425
 33,-678.6304154,-678.6145244,-678.5963028,-678.5754411,-678.5515952,-6
 78.5243867,-678.4934023,-678.4581976,-678.4183035,-678.3732382,-678.70
 85529,-678.7039618,-678.6986579,-678.6925356,-678.6854744,-678.6773373
 ,-678.6679682,-678.6571898,-678.6448013,-678.6305755,-678.6142561,-678
 .5955549,-678.574149,-678.5496786,-678.5217447,-678.4899088,-678.45369
 34,-678.412586,-678.3660462,-678.7079919,-678.7031235,-678.6975073,-67
 8.6910327,-678.6835736,-678.6749866,-678.6651085,-678.6537541,-678.640
 7134,-678.6257488,-678.6085924,-678.5889426,-678.566461,-678.5407701,-
 678.5114502,-678.4780382,-678.4400273,-678.3968687,-678.3479769,-678.7
 045906,-678.699202,-678.6929953,-678.6858518,-678.6776366,-678.6681963
 ,-678.6573569,-678.6449215,-678.6306674,-678.6143431,-678.5956655,-678
 .5743168,-678.5499413,-678.5221423,-678.4904801,-678.45447,-678.413581
 7,-678.3672415,-678.3148365,-678.6979766,-678.6916793,-678.6844503,-67
 8.6761589,-678.6666566,-678.6557759,-678.6433274,-678.6290977,-678.612
 8465,-678.5943038,-678.573167,-678.5490978,-678.5217199,-678.4906156,-
 678.4553246,-678.4153424,-678.3701213,-678.3190728,-678.261574,-678.68
 73687,-678.6796728,-678.6708752,-678.6608264,-678.6493578,-678.6362795
 ,-678.6213779,-678.6044132,-678.5851163,-678.5631865,-678.5382877,-678
 .5100463,-678.4780476,-678.441834,-678.4009031,-678.3547072,-678.30265
 43,-678.2441122,-678.1784158,-678.6723032,-678.6626351,-678.6516147,-6
 78.63906,-678.6247657,-678.6084998,-678.5900003,-678.5689718,-678.5450
 808,-678.5179517,-678.4871616,-678.4522349,-678.4126383,-678.3677751,-
 678.3169803,-678.2595164,-678.1945711,-678.121257,-678.038616,-678.653
 3897,-678.6411547,-678.6271995,-678.6112815,-678.5931223,-678.5724016,
 -678.5487501,-678.5217417,-678.490883,-678.4556025,-678.4152374,-678.3
 690184,-678.3160528,-678.2553064,-678.1855832,-678.1055055,-678.013494
 1,-677.9077519,-677.7862537,-678.6334703,-678.6183491,-678.6010317,-67
 8.5811784,-678.5583895,-678.532193,-678.5020291,-678.4672316,-678.4270
 056,-678.3803994,-678.3262725,-678.2632553,-678.1897032,-678.1036406,-
 678.002697,-677.8840316,-677.7442484,-677.5793007,-677.384387,-678.618
 6257,-678.6012555,-678.5812863,-678.5582871,-678.5317422,-678.5010317,
 -678.4654073,-678.4239617,-678.3755916,-678.3189509,-678.2523934,-678.
 173902,-678.0810005,-677.9706447,-677.8390853,-677.681698,-677.4927675
 ,-677.2652148,-676.9902473,-678.6155332,-678.5978306,-678.5774975,-678
 .5540985,-678.5271126,-678.4959128,-678.4597421,-678.4176818,-678.3686
 143,-678.3111751,-678.2436949,-678.1641274,-678.0699592,-677.9580989,-
 677.8247377,-677.6651755,-677.4736008,-677.2428118,-676.9638578,-678.6
 244787,-678.6083763,-678.5899844,-678.5689524,-678.5448673,-678.517240
 9,-678.4854936,-678.4489349,-678.4067402,-678.3579215,-678.3012934,-67
 8.2354319,-678.1586252,-678.0688162,-677.963535,-677.8398204,-677.6941
 314,-677.5222482,-677.3191654,-678.6393586,-678.625544,-678.6098526,-6
 78.592025,-678.5717636,-678.548726,-678.5225177,-678.492683,-678.45869
 52,-678.4199439,-678.3757221,-678.3252098,-678.2674573,-678.2013662,-6
 78.1256698,-678.0389147,-677.9394437,-677.8253862,-677.6946592,-678.65
 38947,-678.6420478,-678.6286135,-678.6133842,-678.5961259,-678.5765745
 ,-678.5544324,-678.5293644,-678.5009932,-678.4688951,-678.4325947,-678
 .3915599,-678.3451976,-678.2928493,-678.233789,-678.167224,-678.0923,-
 678.0081159,-677.9137523,-678.66406,-678.6534679,-678.6414398,-678.627
 7885,-678.6123033,-678.594748,-678.5748574,-678.5523353,-678.5268504,-
 678.4980339,-678.4654763,-678.4287245,-678.3872802,-678.3405984,-678.2
 880892,-678.2291226,-678.1630396,-678.089175,-678.0069005,-678.6676844
 ,-678.6575204,-678.6459665,-678.6328402,-678.6179362,-678.6010241,-678
 .5818456,-678.5601116,-678.535499,-678.5076478,-678.4761581,-678.44058
 73,-678.400448,-678.3552066,-678.3042848,-678.2470631,-678.182892,-678
 .1111139,-678.0311077\RMSD=9.683e-09,1.484e-09,2.973e-09,4.164e-09,4.8
 93e-09,5.295e-09,5.464e-09,5.432e-09,5.208e-09,4.826e-09,4.393e-09,4.1
 66e-09,4.952e-09,7.359e-09,6.590e-09,8.546e-09,9.261e-09,1.979e-09,2.6
 63e-09,2.508e-09,2.242e-09,3.148e-09,3.797e-09,4.178e-09,4.325e-09,4.2
 69e-09,4.057e-09,3.785e-09,3.627e-09,3.900e-09,5.257e-09,8.312e-09,1.8
 29e-09,5.007e-09,9.629e-09,2.075e-09,2.947e-09,4.317e-09,1.755e-09,1.5
 97e-09,1.580e-09,1.511e-09,1.582e-09,1.861e-09,2.312e-09,2.894e-09,3.5
 87e-09,4.392e-09,5.354e-09,6.593e-09,8.362e-09,6.018e-09,7.388e-09,8.8
 33e-09,2.110e-09,3.117e-09,4.705e-09,1.755e-09,4.315e-09,4.822e-09,5.3
 76e-09,5.991e-09,6.680e-09,7.461e-09,8.349e-09,9.364e-09,2.169e-09,2.7
 66e-09,3.616e-09,4.811e-09,6.471e-09,8.742e-09,1.328e-09,1.976e-09,3.0
 35e-09,4.719e-09,1.890e-09,5.333e-09,5.867e-09,6.459e-09,7.133e-09,7.9
 20e-09,8.852e-09,9.966e-09,1.584e-09,1.911e-09,2.395e-09,3.099e-09,4.1
 11e-09,5.553e-09,7.612e-09,1.132e-09,1.720e-09,2.707e-09,4.336e-09,9.7
 85e-09,5.393e-09,5.937e-09,6.532e-09,7.198e-09,7.956e-09,8.832e-09,9.8
 55e-09,1.582e-09,1.847e-09,2.241e-09,2.822e-09,3.667e-09,4.876e-09,6.5
 95e-09,9.059e-09,1.429e-09,2.253e-09,3.642e-09,9.247e-09,5.441e-09,5.9
 10e-09,6.392e-09,6.893e-09,7.416e-09,7.966e-09,8.549e-09,9.178e-09,9.8
 87e-09,1.911e-09,2.134e-09,2.517e-09,3.187e-09,4.298e-09,6.017e-09,8.5
 61e-09,1.503e-09,2.395e-09,1.769e-09,5.413e-09,5.731e-09,6.054e-09,6.3
 93e-09,6.762e-09,7.173e-09,7.643e-09,8.189e-09,8.830e-09,9.597e-09,2.8
 65e-09,3.368e-09,3.991e-09,4.754e-09,5.725e-09,7.052e-09,8.951e-09,1.4
 38e-09,1.770e-09,5.675e-09,6.111e-09,6.620e-09,7.211e-09,7.878e-09,8.6
 07e-09,9.369e-09,2.521e-09,2.890e-09,3.316e-09,3.803e-09,4.383e-09,5.1
 24e-09,6.131e-09,7.577e-09,9.749e-09,1.748e-09,2.399e-09,1.971e-09,6.5
 40e-09,6.419e-09,5.436e-09,4.865e-09,5.832e-09,8.591e-09,2.543e-09,2.7
 70e-09,2.903e-09,3.016e-09,3.271e-09,3.856e-09,4.958e-09,6.779e-09,9.5
 59e-09,2.106e-09,3.000e-09,4.204e-09,2.821e-09,9.565e-09,1.973e-09,2.2
 30e-09,2.480e-09,2.658e-09,2.673e-09,2.498e-09,2.374e-09,2.858e-09,4.3
 47e-09,6.995e-09,2.413e-09,3.261e-09,4.262e-09,5.517e-09,7.211e-09,9.6
 55e-09,1.234e-09,4.765e-09,9.056e-09,9.544e-09,2.384e-09,2.233e-09,1.8
 94e-09,1.642e-09,2.234e-09,3.878e-09,5.587e-09,6.042e-09,5.707e-09,8.5
 14e-09,3.026e-09,5.465e-09,8.441e-09,1.450e-09,2.098e-09,2.701e-09,4.5
 37e-09,6.274e-09,7.392e-09,9.084e-09,3.832e-09,5.140e-09,6.528e-09,7.5
 63e-09,7.608e-09,6.385e-09,6.096e-09,1.755e-09,3.149e-09,4.261e-09,4.7
 29e-09,6.063e-09,4.621e-09,9.727e-09,1.801e-09,3.809e-09,3.551e-09,4.1
 39e-09,4.818e-09,5.562e-09,6.329e-09,7.062e-09,7.669e-09,7.968e-09,7.6
 96e-09,6.737e-09,5.785e-09,6.878e-09,3.617e-09,4.349e-09,3.175e-09,5.4
 82e-09,6.950e-09,6.569e-09,4.995e-09,3.113e-09,3.597e-09,4.167e-09,4.8
 21e-09,5.563e-09,6.430e-09,7.517e-09,8.950e-09,1.053e-09,1.367e-09,1.7
 68e-09,2.267e-09,2.928e-09,3.938e-09,5.639e-09,8.340e-09,1.236e-09,1.7
 07e-09,6.652e-09,2.347e-09,2.693e-09,3.119e-09,3.641e-09,4.277e-09,5.0
 70e-09,6.109e-09,7.547e-09,9.592e-09,1.251e-09,1.660e-09,2.198e-09,2.8
 97e-09,3.792e-09,4.932e-09,6.417e-09,8.450e-09,2.104e-09,8.287e-09,6.5
 92e-09,8.382e-09,2.353e-09,2.788e-09,3.267e-09,3.847e-09,4.586e-09,5.5
 64e-09,6.898e-09,8.749e-09,9.913e-10,1.262e-09,1.639e-09,2.193e-09,3.0
 41e-09,4.382e-09,6.549e-09,1.592e-09,8.299e-09,6.768e-09,7.604e-09,8.5
 47e-09,9.613e-09,3.099e-09,3.567e-09,4.007e-09,3.956e-09,2.109e-09,3.5
 82e-09,7.255e-09,8.173e-10,1.098e-09,1.557e-09,2.338e-09,3.568e-09,3.0
 58e-09,9.896e-09,3.902e-09,5.986e-09,6.769e-09,7.744e-09,8.961e-09,3.7
 54e-09,4.280e-09,4.864e-09,5.477e-09,6.074e-09,6.603e-09,7.043e-09,7.4
 73e-09,8.153e-09,9.495e-09,3.028e-09,4.759e-09,7.620e-09,1.497e-09\PG=
 CS [SG(Ar1H4O2)]\\@


 A DANDELION FROM A LOVER MEANS MORE THAN AN ORCHID FROM A FRIEND.
 Job cpu time:       0 days  0 hours 35 minutes 55.3 seconds.
 Elapsed time:       0 days  0 hours  3 minutes 54.5 seconds.
 File lengths (MBytes):  RWF=     10 Int=      0 D2E=      0 Chk=      4 Scr=      1
 Normal termination of Gaussian 16 at Tue Jun 16 23:12:45 2020.
